
                                 *****************
                                 * O   R   C   A *
                                 *****************

                                            #,                                       
                                            ###                                      
                                            ####                                     
                                            #####                                    
                                            ######                                   
                                           ########,                                 
                                     ,,################,,,,,                         
                               ,,#################################,,                 
                          ,,##########################################,,             
                       ,#########################################, ''#####,          
                    ,#############################################,,   '####,        
                  ,##################################################,,,,####,       
                ,###########''''           ''''###############################       
              ,#####''   ,,,,##########,,,,          '''####'''          '####       
            ,##' ,,,,###########################,,,                        '##       
           ' ,,###''''                  '''############,,,                           
         ,,##''                                '''############,,,,        ,,,,,,###''
      ,#''                                            '''#######################'''  
     '                                                          ''''####''''         
             ,#######,   #######,   ,#######,      ##                                
            ,#'     '#,  ##    ##  ,#'     '#,    #''#        ######   ,####,        
            ##       ##  ##   ,#'  ##            #'  '#       #        #'  '#        
            ##       ##  #######   ##           ,######,      #####,   #    #        
            '#,     ,#'  ##    ##  '#,     ,#' ,#      #,         ##   #,  ,#        
             '#######'   ##     ##  '#######'  #'      '#     #####' # '####'        



                  #######################################################
                  #                        -***-                        #
                  #          Department of theory and spectroscopy      #
                  #    Directorship and core code : Frank Neese         #
                  #        Max Planck Institute fuer Kohlenforschung    #
                  #                Kaiser Wilhelm Platz 1               #
                  #                 D-45470 Muelheim/Ruhr               #
                  #                      Germany                        #
                  #                                                     #
                  #                  All rights reserved                #
                  #                        -***-                        #
                  #######################################################


                         Program Version 5.0.4 -  RELEASE  -


 With contributions from (in alphabetic order):
   Daniel Aravena         : Magnetic Suceptibility
   Michael Atanasov       : Ab Initio Ligand Field Theory (pilot matlab implementation)
   Alexander A. Auer      : GIAO ZORA, VPT2 properties, NMR spectrum
   Ute Becker             : Parallelization
   Giovanni Bistoni       : ED, misc. LED, open-shell LED, HFLD
   Martin Brehm           : Molecular dynamics
   Dmytro Bykov           : SCF Hessian
   Vijay G. Chilkuri      : MRCI spin determinant printing, contributions to CSF-ICE
   Dipayan Datta          : RHF DLPNO-CCSD density
   Achintya Kumar Dutta   : EOM-CC, STEOM-CC
   Dmitry Ganyushin       : Spin-Orbit,Spin-Spin,Magnetic field MRCI
   Miquel Garcia          : C-PCM and meta-GGA Hessian, CC/C-PCM, Gaussian charge scheme
   Yang Guo               : DLPNO-NEVPT2, F12-NEVPT2, CIM, IAO-localization
   Andreas Hansen         : Spin unrestricted coupled pair/coupled cluster methods
   Benjamin Helmich-Paris : MC-RPA, TRAH-SCF, COSX integrals
   Lee Huntington         : MR-EOM, pCC
   Robert Izsak           : Overlap fitted RIJCOSX, COSX-SCS-MP3, EOM
   Marcus Kettner         : VPT2
   Christian Kollmar      : KDIIS, OOCD, Brueckner-CCSD(T), CCSD density, CASPT2, CASPT2-K
   Simone Kossmann        : Meta GGA functionals, TD-DFT gradient, OOMP2, MP2 Hessian
   Martin Krupicka        : Initial AUTO-CI
   Lucas Lang             : DCDCAS
   Marvin Lechner         : AUTO-CI (C++ implementation), FIC-MRCC
   Dagmar Lenk            : GEPOL surface, SMD
   Dimitrios Liakos       : Extrapolation schemes; Compound Job, initial MDCI parallelization
   Dimitrios Manganas     : Further ROCIS development; embedding schemes
   Dimitrios Pantazis     : SARC Basis sets
   Anastasios Papadopoulos: AUTO-CI, single reference methods and gradients
   Taras Petrenko         : DFT Hessian,TD-DFT gradient, ASA, ECA, R-Raman, ABS, FL, XAS/XES, NRVS
   Peter Pinski           : DLPNO-MP2, DLPNO-MP2 Gradient
   Christoph Reimann      : Effective Core Potentials
   Marius Retegan         : Local ZFS, SOC
   Christoph Riplinger    : Optimizer, TS searches, QM/MM, DLPNO-CCSD(T), (RO)-DLPNO pert. Triples
   Tobias Risthaus        : Range-separated hybrids, TD-DFT gradient, RPA, STAB
   Michael Roemelt        : Original ROCIS implementation
   Masaaki Saitow         : Open-shell DLPNO-CCSD energy and density
   Barbara Sandhoefer     : DKH picture change effects
   Avijit Sen             : IP-ROCIS
   Kantharuban Sivalingam : CASSCF convergence, NEVPT2, FIC-MRCI
   Bernardo de Souza      : ESD, SOC TD-DFT
   Georgi Stoychev        : AutoAux, RI-MP2 NMR, DLPNO-MP2 response
   Willem Van den Heuvel  : Paramagnetic NMR
   Boris Wezisla          : Elementary symmetry handling
   Frank Wennmohs         : Technical directorship


 We gratefully acknowledge several colleagues who have allowed us to
 interface, adapt or use parts of their codes:
   Stefan Grimme, W. Hujo, H. Kruse, P. Pracht,  : VdW corrections, initial TS optimization,
                  C. Bannwarth, S. Ehlert          DFT functionals, gCP, sTDA/sTD-DF
   Ed Valeev, F. Pavosevic, A. Kumar             : LibInt (2-el integral package), F12 methods
   Garnet Chan, S. Sharma, J. Yang, R. Olivares  : DMRG
   Ulf Ekstrom                                   : XCFun DFT Library
   Mihaly Kallay                                 : mrcc  (arbitrary order and MRCC methods)
   Jiri Pittner, Ondrej Demel                    : Mk-CCSD
   Frank Weinhold                                : gennbo (NPA and NBO analysis)
   Christopher J. Cramer and Donald G. Truhlar   : smd solvation model
   Lars Goerigk                                  : TD-DFT with DH, B97 family of functionals
   V. Asgeirsson, H. Jonsson                     : NEB implementation
   FAccTs GmbH                                   : IRC, NEB, NEB-TS, DLPNO-Multilevel, CI-OPT
                                                   MM, QMMM, 2- and 3-layer-ONIOM, Crystal-QMMM,
                                                   LR-CPCM, SF, NACMEs, symmetry and pop. for TD-DFT,
                                                   nearIR, NL-DFT gradient (VV10), updates on ESD,
                                                   ML-optimized integration grids
   S Lehtola, MJT Oliveira, MAL Marques          : LibXC Library
   Liviu Ungur et al                             : ANISO software


 Your calculation uses the libint2 library for the computation of 2-el integrals
 For citations please refer to: http://libint.valeyev.net

 Your ORCA version has been built with support for libXC version: 5.1.0
 For citations please refer to: https://tddft.org/programs/libxc/

 This ORCA versions uses:
   CBLAS   interface :  Fast vector & matrix operations
   LAPACKE interface :  Fast linear algebra routines
   SCALAPACK package :  Parallel linear algebra routines
   Shared memory     :  Shared parallel matrices
   BLAS/LAPACK       :  OpenBLAS 0.3.15  USE64BITINT DYNAMIC_ARCH NO_AFFINITY Haswell SINGLE_THREADED
        Core in use  :  Haswell
   Copyright (c) 2011-2014, The OpenBLAS Project


Your calculation utilizes the atom-pairwise dispersion correction
with the Becke-Johnson damping scheme (D3BJ)
Cite in your paper:
S.Grimme, S.Ehrlich, L.Goerigk, J Comput Chem, (2011), 32, 1456–1465 
S.Grimme, J.Antony, S.Ehrlich and H.Krieg, J.Chem.Phys., 132, (2010), 154104 
   

================================================================================

----- Orbital basis set information -----
Your calculation utilizes the basis: def2-TZVP
   F. Weigend and R. Ahlrichs, Phys. Chem. Chem. Phys. 7, 3297 (2005).

----- AuxJ basis set information -----
Your calculation utilizes the auxiliary basis: def2/J
   F. Weigend, Phys. Chem. Chem. Phys. 8, 1057 (2006).

================================================================================
                                        WARNINGS
                       Please study these warnings very carefully!
================================================================================


INFO   : the flag for use of the SHARK integral package has been found!

================================================================================
                                       INPUT FILE
================================================================================
NAME = p0_C6H10_sp_orca.inp
|  1> ! SP PBE0 RIJCOSX D3BJ def2-TZVP def2/J 
|  2> %output 
|  3> xyzfile=True 
|  4> end 
|  5> %scf 
|  6> maxiter 250 
|  7> end
|  8> %output
|  9> Print[P_Hirshfeld] = 1
| 10> end
| 11> % maxcore
| 12> 4000
| 13> *xyz 0 1
| 14> C   -0.89353769  -1.25271019  -0.18340425 
| 15> C    0.42494081  -1.46804626  -0.25625112 
| 16> C    1.44734205  -0.37789261  -0.12257713 
| 17> C    0.82378915   1.00985890  -0.23755915 
| 18> C   -0.46060806   1.09930860   0.57881413 
| 19> C   -1.49577724   0.09685428   0.07712475 
| 20> H   -1.58145254  -2.09498442  -0.31593342 
| 21> H    0.79252262  -2.48625525  -0.42454348 
| 22> H    2.23365611  -0.51073476  -0.88535875 
| 23> H    1.96772079  -0.48407572   0.84868391 
| 24> H    0.59056314   1.21477355  -1.29738234 
| 25> H    1.54407023   1.78075937   0.07889566 
| 26> H   -0.87219223   2.12061058   0.55161774 
| 27> H   -0.22943988   0.88224808   1.63671070 
| 28> H   -2.32172376   0.00077432   0.80262225 
| 29> H   -1.96977354   0.46941155  -0.85125947 
| 30> *
| 31> 
| 32>                          ****END OF INPUT****
================================================================================

                       ****************************
                       * Single Point Calculation *
                       ****************************

---------------------------------
CARTESIAN COORDINATES (ANGSTROEM)
---------------------------------
  C     -0.893538   -1.252710   -0.183404
  C      0.424941   -1.468046   -0.256251
  C      1.447342   -0.377893   -0.122577
  C      0.823789    1.009859   -0.237559
  C     -0.460608    1.099309    0.578814
  C     -1.495777    0.096854    0.077125
  H     -1.581453   -2.094984   -0.315933
  H      0.792523   -2.486255   -0.424543
  H      2.233656   -0.510735   -0.885359
  H      1.967721   -0.484076    0.848684
  H      0.590563    1.214774   -1.297382
  H      1.544070    1.780759    0.078896
  H     -0.872192    2.120611    0.551618
  H     -0.229440    0.882248    1.636711
  H     -2.321724    0.000774    0.802622
  H     -1.969774    0.469412   -0.851259

----------------------------
CARTESIAN COORDINATES (A.U.)
----------------------------
  NO LB      ZA    FRAG     MASS         X           Y           Z
   0 C     6.0000    0    12.011   -1.688542   -2.367279   -0.346584
   1 C     6.0000    0    12.011    0.803022   -2.774205   -0.484244
   2 C     6.0000    0    12.011    2.735080   -0.714114   -0.231637
   3 C     6.0000    0    12.011    1.556736    1.908357   -0.448922
   4 C     6.0000    0    12.011   -0.870423    2.077392    1.093800
   5 C     6.0000    0    12.011   -2.826609    0.183028    0.145745
   6 H     1.0000    0     1.008   -2.988512   -3.958947   -0.597028
   7 H     1.0000    0     1.008    1.497651   -4.698342   -0.802271
   8 H     1.0000    0     1.008    4.220998   -0.965149   -1.673086
   9 H     1.0000    0     1.008    3.718453   -0.914771    1.603780
  10 H     1.0000    0     1.008    1.116003    2.295589   -2.451697
  11 H     1.0000    0     1.008    2.917870    3.365148    0.149091
  12 H     1.0000    0     1.008   -1.648204    4.007373    1.042406
  13 H     1.0000    0     1.008   -0.433579    1.667207    3.092935
  14 H     1.0000    0     1.008   -4.387422    0.001463    1.516736
  15 H     1.0000    0     1.008   -3.722333    0.887059   -1.608647

--------------------------------
INTERNAL COORDINATES (ANGSTROEM)
--------------------------------
 C      0   0   0     0.000000000000     0.00000000     0.00000000
 C      1   0   0     1.337931928191     0.00000000     0.00000000
 C      2   1   0     1.500535908189   123.34441877     0.00000000
 C      3   2   1     1.525743535962   112.06302128   346.09000741
 C      4   3   2     1.524513946864   110.93630059    44.44771388
 C      1   2   3     1.500630565500   123.34551186   358.28373717
 H      1   2   3     1.095544020235   119.23976272   178.45177695
 H      2   1   3     1.095531036892   119.24869180   180.18028867
 H      3   2   1     1.103527361500   109.66163269   223.11597941
 H      3   2   1     1.106985498421   109.19420329   108.48980574
 H      4   3   2     1.104359352560   109.11108082   284.38549015
 H      4   3   2     1.101469934054   110.34551545   167.70608929
 H      5   4   3     1.101453088867   110.85481817   176.07043221
 H      5   4   3     1.104399904747   108.96978459    59.17040784
 H      6   1   2     1.103524188734   109.64638945   223.08912211
 H      6   1   2     1.106963717467   109.20305479   108.45050009

---------------------------
INTERNAL COORDINATES (A.U.)
---------------------------
 C      0   0   0     0.000000000000     0.00000000     0.00000000
 C      1   0   0     2.528324930111     0.00000000     0.00000000
 C      2   1   0     2.835601920592   123.34441877     0.00000000
 C      3   2   1     2.883237433568   112.06302128   346.09000741
 C      4   3   2     2.880913846917   110.93630059    44.44771388
 C      1   2   3     2.835780796986   123.34551186   358.28373717
 H      1   2   3     2.070278165900   119.23976272   178.45177695
 H      2   1   3     2.070253630937   119.24869180   180.18028867
 H      3   2   1     2.085364494525   109.66163269   223.11597941
 H      3   2   1     2.091899426239   109.19420329   108.48980574
 H      4   3   2     2.086936729773   109.11108082   284.38549015
 H      4   3   2     2.081476520110   110.34551545   167.70608929
 H      5   4   3     2.081444687321   110.85481817   176.07043221
 H      5   4   3     2.087013362300   108.96978459    59.17040784
 H      6   1   2     2.085358498864   109.64638945   223.08912211
 H      6   1   2     2.091858266200   109.20305479   108.45050009

---------------------
BASIS SET INFORMATION
---------------------
There are 2 groups of distinct atoms

 Group   1 Type C   : 11s6p2d1f contracted to 5s3p2d1f pattern {62111/411/11/1}
 Group   2 Type H   : 5s1p contracted to 3s1p pattern {311/1}

Atom   0C    basis set group =>   1
Atom   1C    basis set group =>   1
Atom   2C    basis set group =>   1
Atom   3C    basis set group =>   1
Atom   4C    basis set group =>   1
Atom   5C    basis set group =>   1
Atom   6H    basis set group =>   2
Atom   7H    basis set group =>   2
Atom   8H    basis set group =>   2
Atom   9H    basis set group =>   2
Atom  10H    basis set group =>   2
Atom  11H    basis set group =>   2
Atom  12H    basis set group =>   2
Atom  13H    basis set group =>   2
Atom  14H    basis set group =>   2
Atom  15H    basis set group =>   2
---------------------------------
AUXILIARY/J BASIS SET INFORMATION
---------------------------------
There are 2 groups of distinct atoms

 Group   1 Type C   : 12s5p4d2f1g contracted to 6s4p3d1f1g pattern {711111/2111/211/2/1}
 Group   2 Type H   : 5s2p1d contracted to 3s1p1d pattern {311/2/1}

Atom   0C    basis set group =>   1
Atom   1C    basis set group =>   1
Atom   2C    basis set group =>   1
Atom   3C    basis set group =>   1
Atom   4C    basis set group =>   1
Atom   5C    basis set group =>   1
Atom   6H    basis set group =>   2
Atom   7H    basis set group =>   2
Atom   8H    basis set group =>   2
Atom   9H    basis set group =>   2
Atom  10H    basis set group =>   2
Atom  11H    basis set group =>   2
Atom  12H    basis set group =>   2
Atom  13H    basis set group =>   2
Atom  14H    basis set group =>   2
Atom  15H    basis set group =>   2
------------------------------------------------------------------------------
                           ORCA GTO INTEGRAL CALCULATION
                           -- RI-GTO INTEGRALS CHOSEN --
------------------------------------------------------------------------------
------------------------------------------------------------------------------
                   ___                                                        
                  /   \      - P O W E R E D   B Y -                         
                 /     \                                                     
                 |  |  |   _    _      __       _____    __    __             
                 |  |  |  | |  | |    /  \     |  _  \  |  |  /  |          
                  \  \/   | |  | |   /    \    | | | |  |  | /  /          
                 / \  \   | |__| |  /  /\  \   | |_| |  |  |/  /          
                |  |  |   |  __  | /  /__\  \  |    /   |      \           
                |  |  |   | |  | | |   __   |  |    \   |  |\   \          
                \     /   | |  | | |  |  |  |  | |\  \  |  | \   \       
                 \___/    |_|  |_| |__|  |__|  |_| \__\ |__|  \__/        
                                                                              
                      - O R C A' S   B I G   F R I E N D -                    
                                      &                                       
                       - I N T E G R A L  F E E D E R -                       
                                                                              
 v1 FN, 2020, v2 2021                                                         
------------------------------------------------------------------------------


Reading SHARK input file p0_C6H10_sp_orca.SHARKINP.tmp ... ok
----------------------
SHARK INTEGRAL PACKAGE
----------------------

Number of atoms                             ...     16
Number of basis functions                   ...    246
Number of shells                            ...    106
Maximum angular momentum                    ...      3
Integral batch strategy                     ... SHARK/LIBINT Hybrid
RI-J (if used) integral strategy            ... SPLIT-RIJ (Revised 2003 algorithm where possible)
Printlevel                                  ...      1
Contraction scheme used                     ... SEGMENTED contraction
Coulomb Range Separation                    ... NOT USED
Exchange Range Separation                   ... NOT USED
Finite Nucleus Model                        ... NOT USED
Auxiliary Coulomb fitting basis             ... AVAILABLE
   # of basis functions in Aux-J            ...    404
   # of shells in Aux-J                     ...    140
   Maximum angular momentum in Aux-J        ...      4
Auxiliary J/K fitting basis                 ... NOT available
Auxiliary Correlation fitting basis         ... NOT available
Auxiliary 'external' fitting basis          ... NOT available
Integral threshold                          ...     1.000000e-10
Primitive cut-off                           ...     1.000000e-11
Primitive pair pre-selection threshold      ...     1.000000e-11

Calculating pre-screening integrals         ... done (  0.1 sec) Dimension = 106
Organizing shell pair data                  ... done (  0.0 sec)
Shell pair information
Total number of shell pairs                 ...      5671
Shell pairs after pre-screening             ...      5471
Total number of primitive shell pairs       ...     16452
Primitive shell pairs kept                  ...     12560
          la=0 lb=0:   1712 shell pairs
          la=1 lb=0:   1613 shell pairs
          la=1 lb=1:    403 shell pairs
          la=2 lb=0:    708 shell pairs
          la=2 lb=1:    336 shell pairs
          la=2 lb=2:     78 shell pairs
          la=3 lb=0:    360 shell pairs
          la=3 lb=1:    168 shell pairs
          la=3 lb=2:     72 shell pairs
          la=3 lb=3:     21 shell pairs

Calculating one electron integrals          ... done (  0.0 sec)
Calculating RI/J V-Matrix + Cholesky decomp.... done (  0.0 sec)
Calculating Nuclear repulsion               ... done (  0.0 sec) ENN=    236.997752494103 Eh

SHARK setup successfully completed in   0.3 seconds

Maximum memory used throughout the entire GTOINT-calculation: 66.9 MB
-------------------------------------------------------------------------------
                                 ORCA SCF
-------------------------------------------------------------------------------

------------
SCF SETTINGS
------------
Hamiltonian:
 Density Functional     Method          .... DFT(GTOs)
 Exchange Functional    Exchange        .... PBE
   PBE kappa parameter   XKappa         ....  0.804000
   PBE mue parameter    XMuePBE         ....  0.219520
 Correlation Functional Correlation     .... PBE
   PBE beta parameter  CBetaPBE         ....  0.066725
 LDA part of GGA corr.  LDAOpt          .... PW91-LDA
 Gradients option       PostSCFGGA      .... off
 Hybrid DFT is turned on
   Fraction HF Exchange ScalHFX         ....  0.250000
   Scaling of DF-GGA-X  ScalDFX         ....  0.750000
   Scaling of DF-GGA-C  ScalDFC         ....  1.000000
   Scaling of DF-LDA-C  ScalLDAC        ....  1.000000
   Perturbative correction              ....  0.000000
   Density functional embedding theory  .... OFF
   NL short-range parameter             ....  6.900000
 RI-approximation to the Coulomb term is turned on
   Number of AuxJ basis functions       .... 404
   RIJ-COSX (HFX calculated with COS-X)).... on


General Settings:
 Integral files         IntName         .... p0_C6H10_sp_orca
 Hartree-Fock type      HFTyp           .... RHF
 Total Charge           Charge          ....    0
 Multiplicity           Mult            ....    1
 Number of Electrons    NEL             ....   46
 Basis Dimension        Dim             ....  246
 Nuclear Repulsion      ENuc            ....    236.9977524941 Eh

Convergence Acceleration:
 DIIS                   CNVDIIS         .... on
   Start iteration      DIISMaxIt       ....    12
   Startup error        DIISStart       ....  0.200000
   # of expansion vecs  DIISMaxEq       ....     5
   Bias factor          DIISBfac        ....   1.050
   Max. coefficient     DIISMaxC        ....  10.000
 Trust-Rad. Augm. Hess. CNVTRAH         .... auto
   Auto Start mean grad. ratio tolernc. ....  1.125000
   Auto Start start iteration           ....    20
   Auto Start num. interpolation iter.  ....    10
   Max. Number of Micro iterations      ....    16
   Max. Number of Macro iterations      .... Maxiter - #DIIS iter
   Number of Davidson start vectors     ....     2
   Converg. threshold I  (grad. norm)   ....   5.000e-05
   Converg. threshold II (energy diff.) ....   1.000e-06
   Grad. Scal. Fac. for Micro threshold ....   0.100
   Minimum threshold for Micro iter.    ....   0.010
   NR start threshold (gradient norm)   ....   0.001
   Initial trust radius                 ....   0.400
   Minimum AH scaling param. (alpha)    ....   1.000
   Maximum AH scaling param. (alpha)    .... 1000.000
   Orbital update algorithm             .... Taylor
   White noise on init. David. guess    .... on
   Maximum white noise                  ....   0.010
   Quad. conv. algorithm                .... NR
 SOSCF                  CNVSOSCF        .... on
   Start iteration      SOSCFMaxIt      ....   150
   Startup grad/error   SOSCFStart      ....  0.003300
 Level Shifting         CNVShift        .... on
   Level shift para.    LevelShift      ....    0.2500
   Turn off err/grad.   ShiftErr        ....    0.0010
 Zerner damping         CNVZerner       .... off
 Static damping         CNVDamp         .... on
   Fraction old density DampFac         ....    0.7000
   Max. Damping (<1)    DampMax         ....    0.9800
   Min. Damping (>=0)   DampMin         ....    0.0000
   Turn off err/grad.   DampErr         ....    0.1000
 Fernandez-Rico         CNVRico         .... off

SCF Procedure:
 Maximum # iterations   MaxIter         ....   250
 SCF integral mode      SCFMode         .... Direct
   Integral package                     .... SHARK and LIBINT hybrid scheme
 Reset frequency        DirectResetFreq ....    20
 Integral Threshold     Thresh          ....  1.000e-10 Eh
 Primitive CutOff       TCut            ....  1.000e-11 Eh

Convergence Tolerance:
 Convergence Check Mode ConvCheckMode   .... Total+1el-Energy
 Convergence forced     ConvForced      .... 0
 Energy Change          TolE            ....  1.000e-06 Eh
 1-El. energy change                    ....  1.000e-03 Eh
 Orbital Gradient       TolG            ....  5.000e-05
 Orbital Rotation angle TolX            ....  5.000e-05
 DIIS Error             TolErr          ....  1.000e-06


Diagonalization of the overlap matrix:
Smallest eigenvalue                        ... 8.123e-05
Time for diagonalization                   ...    0.008 sec
Threshold for overlap eigenvalues          ... 1.000e-08
Number of eigenvalues below threshold      ... 0
Time for construction of square roots      ...    0.003 sec
Total time needed                          ...    0.011 sec

Time for model grid setup =    0.186 sec

------------------------------
INITIAL GUESS: MODEL POTENTIAL
------------------------------
Loading Hartree-Fock densities                     ... done
Calculating cut-offs                               ... done
Initializing the effective Hamiltonian             ... done
Setting up the integral package (SHARK)            ... done
Starting the Coulomb interaction                   ... done (   0.3 sec)
Reading the grid                                   ... done
Mapping shells                                     ... done
Starting the XC term evaluation                    ... done (   0.4 sec)
  promolecular density results
     # of electrons  =     45.998449904
     EX              =    -33.627071938
     EC              =     -1.499902184
     EX+EC           =    -35.126974121
Transforming the Hamiltonian                       ... done (   0.0 sec)
Diagonalizing the Hamiltonian                      ... done (   0.0 sec)
Back transforming the eigenvectors                 ... done (   0.0 sec)
Now organizing SCF variables                       ... done
                      ------------------
                      INITIAL GUESS DONE (   0.8 sec)
                      ------------------
-------------------
DFT GRID GENERATION
-------------------

General Integration Accuracy     IntAcc      ... 4.388
Radial Grid Type                 RadialGrid  ... OptM3 with GC (2021)
Angular Grid (max. ang.)         AngularGrid ... 4 (Lebedev-302)
Angular grid pruning method      GridPruning ... 4 (adaptive)
Weight generation scheme         WeightScheme... Becke
Basis function cutoff            BFCut       ... 1.0000e-10
Integration weight cutoff        WCut        ... 1.0000e-14
Angular grids for H and He will be reduced by one unit
Partially contracted basis set               ... off
Rotationally invariant grid construction     ... off

Total number of grid points                  ...    68079
Total number of batches                      ...     1072
Average number of points per batch           ...       63
Average number of grid points per atom       ...     4255
Time for grid setup =    0.770 sec

--------------------
COSX GRID GENERATION
--------------------

GRIDX 1
-------
General Integration Accuracy     IntAcc      ... 3.816
Radial Grid Type                 RadialGrid  ... OptM3 with GC (2021)
Angular Grid (max. ang.)         AngularGrid ... 1 (Lebedev-50)
Angular grid pruning method      GridPruning ... 4 (adaptive)
Weight generation scheme         WeightScheme... Becke
Basis function cutoff            BFCut       ... 1.0000e-10
Integration weight cutoff        WCut        ... 1.0000e-14
Angular grids for H and He will be reduced by one unit
Partially contracted basis set               ... on
Rotationally invariant grid construction     ... off

Total number of grid points                  ...     8754
Total number of batches                      ...      146
Average number of points per batch           ...       59
Average number of grid points per atom       ...      547
UseSFitting                                  ... on

GRIDX 2
-------
General Integration Accuracy     IntAcc      ... 4.020
Radial Grid Type                 RadialGrid  ... OptM3 with GC (2021)
Angular Grid (max. ang.)         AngularGrid ... 2 (Lebedev-110)
Angular grid pruning method      GridPruning ... 4 (adaptive)
Weight generation scheme         WeightScheme... Becke
Basis function cutoff            BFCut       ... 1.0000e-10
Integration weight cutoff        WCut        ... 1.0000e-14
Angular grids for H and He will be reduced by one unit
Partially contracted basis set               ... on
Rotationally invariant grid construction     ... off

Total number of grid points                  ...    18333
Total number of batches                      ...      292
Average number of points per batch           ...       62
Average number of grid points per atom       ...     1146
UseSFitting                                  ... on

GRIDX 3
-------
General Integration Accuracy     IntAcc      ... 4.338
Radial Grid Type                 RadialGrid  ... OptM3 with GC (2021)
Angular Grid (max. ang.)         AngularGrid ... 3 (Lebedev-194)
Angular grid pruning method      GridPruning ... 4 (adaptive)
Weight generation scheme         WeightScheme... Becke
Basis function cutoff            BFCut       ... 1.0000e-10
Integration weight cutoff        WCut        ... 1.0000e-14
Angular grids for H and He will be reduced by one unit
Partially contracted basis set               ... on
Rotationally invariant grid construction     ... off

Total number of grid points                  ...    40069
Total number of batches                      ...      635
Average number of points per batch           ...       63
Average number of grid points per atom       ...     2504
UseSFitting                                  ... on

Time for X-Grid setup             =    0.986 sec

--------------
SCF ITERATIONS
--------------
ITER       Energy         Delta-E        Max-DP      RMS-DP      [F,P]     Damp
               ***  Starting incremental Fock matrix formation  ***
  0   -234.2443680566   0.000000000000 0.02842712  0.00092544  0.1579712 0.7000
  1   -234.3336283514  -0.089260294717 0.01915066  0.00070833  0.0847648 0.7000
                               ***Turning on DIIS***
  2   -234.3705326657  -0.036904314298 0.03044453  0.00124138  0.0344269 0.0000
  3   -234.4237977542  -0.053265088544 0.01571877  0.00053688  0.0422374 0.0000
  4   -234.4385281920  -0.014730437785 0.00368908  0.00016687  0.0069906 0.0000
                      *** Initiating the SOSCF procedure ***
                           *** Shutting down DIIS ***
                      *** Re-Reading the Fockian *** 
                      *** Removing any level shift *** 
ITER      Energy       Delta-E        Grad      Rot      Max-DP    RMS-DP
  5   -234.43909069  -0.0005625013  0.000538  0.000538  0.002378  0.000075
               *** Restarting incremental Fock matrix formation ***
  6   -234.43911580  -0.0000251055  0.000270  0.000514  0.001991  0.000055
  7   -234.43911705  -0.0000012551  0.000210  0.000184  0.000258  0.000009
  8   -234.43911788  -0.0000008251  0.000038  0.000050  0.000183  0.000005
                 **** Energy Check signals convergence ****
              ***Rediagonalizing the Fockian in SOSCF/NRSCF***

               *****************************************************
               *                     SUCCESS                       *
               *           SCF CONVERGED AFTER   9 CYCLES          *
               *****************************************************

Old exchange energy                            =     -8.667126838 Eh
New exchange energy                            =     -8.667132347 Eh
Exchange energy change after final integration =     -0.000005509 Eh
Total energy after final integration           =   -234.439123453 Eh
Final COS-X integration done in                =    16.159 sec

----------------
TOTAL SCF ENERGY
----------------

Total Energy       :         -234.43912345 Eh           -6379.41287 eV

Components:
Nuclear Repulsion  :          236.99775249 Eh            6449.03671 eV
Electronic Energy  :         -471.43687595 Eh          -12828.44958 eV
One Electron Energy:         -783.98295161 Eh          -21333.26068 eV
Two Electron Energy:          312.54607567 Eh            8504.81110 eV
Max COSX asymmetry :            0.00000095 Eh               0.00003 eV

Virial components:
Potential Energy   :         -467.48200845 Eh          -12720.83216 eV
Kinetic Energy     :          233.04288500 Eh            6341.41929 eV
Virial Ratio       :            2.00599134


DFT components:
N(Alpha)           :       23.000018846585 electrons
N(Beta)            :       23.000018846585 electrons
N(Total)           :       46.000037693170 electrons
E(X)               :      -25.867052403189 Eh       
E(C)               :       -1.503095978353 Eh       
E(XC)              :      -27.370148381542 Eh       
DFET-embed. en.    :        0.000000000000 Eh       

---------------
SCF CONVERGENCE
---------------

  Last Energy change         ...   -6.4512e-08  Tolerance :   1.0000e-06
  Last MAX-Density change    ...    1.3323e-15  Tolerance :   1.0000e-05
  Last RMS-Density change    ...    1.8490e-17  Tolerance :   1.0000e-06
  Last Orbital Gradient      ...    1.5196e-05  Tolerance :   5.0000e-05
  Last Orbital Rotation      ...    1.1011e-05  Tolerance :   5.0000e-05

             **** THE GBW FILE WAS UPDATED (p0_C6H10_sp_orca.gbw) ****
             **** DENSITY p0_C6H10_sp_orca.scfp WAS UPDATED ****
             **** ENERGY FILE WAS UPDATED (p0_C6H10_sp_orca.en.tmp) ****
             **** THE GBW FILE WAS UPDATED (p0_C6H10_sp_orca.gbw) ****
             **** DENSITY p0_C6H10_sp_orca.scfp WAS UPDATED ****
----------------
ORBITAL ENERGIES
----------------

  NO   OCC          E(Eh)            E(eV) 
   0   2.0000     -10.218988      -278.0728 
   1   2.0000     -10.218969      -278.0723 
   2   2.0000     -10.215522      -277.9785 
   3   2.0000     -10.215273      -277.9717 
   4   2.0000     -10.215120      -277.9675 
   5   2.0000     -10.214224      -277.9432 
   6   2.0000      -0.856691       -23.3117 
   7   2.0000      -0.761841       -20.7308 
   8   2.0000      -0.759702       -20.6725 
   9   2.0000      -0.634433       -17.2638 
  10   2.0000      -0.613546       -16.6954 
  11   2.0000      -0.522048       -14.2056 
  12   2.0000      -0.506726       -13.7887 
  13   2.0000      -0.456909       -12.4331 
  14   2.0000      -0.436925       -11.8893 
  15   2.0000      -0.418720       -11.3940 
  16   2.0000      -0.400301       -10.8927 
  17   2.0000      -0.390282       -10.6201 
  18   2.0000      -0.388506       -10.5718 
  19   2.0000      -0.334335        -9.0977 
  20   2.0000      -0.325637        -8.8610 
  21   2.0000      -0.313526        -8.5315 
  22   2.0000      -0.250536        -6.8174 
  23   0.0000       0.021855         0.5947 
  24   0.0000       0.045627         1.2416 
  25   0.0000       0.075291         2.0488 
  26   0.0000       0.081196         2.2095 
  27   0.0000       0.087204         2.3729 
  28   0.0000       0.106439         2.8963 
  29   0.0000       0.107374         2.9218 
  30   0.0000       0.121737         3.3126 
  31   0.0000       0.127822         3.4782 
  32   0.0000       0.141467         3.8495 
  33   0.0000       0.153380         4.1737 
  34   0.0000       0.172821         4.7027 
  35   0.0000       0.191188         5.2025 
  36   0.0000       0.211144         5.7455 
  37   0.0000       0.221586         6.0297 
  38   0.0000       0.227602         6.1934 
  39   0.0000       0.232190         6.3182 
  40   0.0000       0.242656         6.6030 
  41   0.0000       0.246574         6.7096 
  42   0.0000       0.256668         6.9843 
  43   0.0000       0.275382         7.4935 
  44   0.0000       0.301322         8.1994 
  45   0.0000       0.308926         8.4063 
  46   0.0000       0.339684         9.2433 
  47   0.0000       0.347945         9.4681 
  48   0.0000       0.372863        10.1461 
  49   0.0000       0.389728        10.6050 
  50   0.0000       0.396011        10.7760 
  51   0.0000       0.410315        11.1653 
  52   0.0000       0.423658        11.5283 
  53   0.0000       0.424423        11.5491 
  54   0.0000       0.425388        11.5754 
  55   0.0000       0.434814        11.8319 
  56   0.0000       0.444924        12.1070 
  57   0.0000       0.445903        12.1336 
  58   0.0000       0.447906        12.1881 
  59   0.0000       0.458590        12.4789 
  60   0.0000       0.462952        12.5976 
  61   0.0000       0.473499        12.8846 
  62   0.0000       0.480865        13.0850 
  63   0.0000       0.481625        13.1057 
  64   0.0000       0.502467        13.6728 
  65   0.0000       0.517358        14.0780 
  66   0.0000       0.544968        14.8293 
  67   0.0000       0.587757        15.9937 
  68   0.0000       0.614856        16.7311 
  69   0.0000       0.629019        17.1165 
  70   0.0000       0.669295        18.2124 
  71   0.0000       0.670624        18.2486 
  72   0.0000       0.721671        19.6377 
  73   0.0000       0.733406        19.9570 
  74   0.0000       0.754997        20.5445 
  75   0.0000       0.771973        21.0065 
  76   0.0000       0.806292        21.9403 
  77   0.0000       0.809481        22.0271 
  78   0.0000       0.872517        23.7424 
  79   0.0000       0.872692        23.7472 
  80   0.0000       0.903933        24.5973 
  81   0.0000       0.916612        24.9423 
  82   0.0000       0.956206        26.0197 
  83   0.0000       0.979871        26.6637 
  84   0.0000       0.988230        26.8911 
  85   0.0000       0.999809        27.2062 
  86   0.0000       1.029992        28.0275 
  87   0.0000       1.047400        28.5012 
  88   0.0000       1.061327        28.8802 
  89   0.0000       1.095164        29.8009 
  90   0.0000       1.119903        30.4741 
  91   0.0000       1.139943        31.0194 
  92   0.0000       1.159601        31.5543 
  93   0.0000       1.175420        31.9848 
  94   0.0000       1.194559        32.5056 
  95   0.0000       1.215799        33.0836 
  96   0.0000       1.222438        33.2642 
  97   0.0000       1.233702        33.5707 
  98   0.0000       1.260361        34.2962 
  99   0.0000       1.301297        35.4101 
 100   0.0000       1.323939        36.0262 
 101   0.0000       1.326236        36.0887 
 102   0.0000       1.411698        38.4142 
 103   0.0000       1.489719        40.5373 
 104   0.0000       1.490028        40.5457 
 105   0.0000       1.498190        40.7678 
 106   0.0000       1.540406        41.9166 
 107   0.0000       1.556034        42.3418 
 108   0.0000       1.581595        43.0374 
 109   0.0000       1.603879        43.6438 
 110   0.0000       1.611993        43.8646 
 111   0.0000       1.623129        44.1676 
 112   0.0000       1.657982        45.1160 
 113   0.0000       1.658804        45.1384 
 114   0.0000       1.678420        45.6721 
 115   0.0000       1.714872        46.6640 
 116   0.0000       1.719249        46.7831 
 117   0.0000       1.752974        47.7009 
 118   0.0000       1.762600        47.9628 
 119   0.0000       1.763623        47.9906 
 120   0.0000       1.804073        49.0913 
 121   0.0000       1.860810        50.6352 
 122   0.0000       1.870012        50.8856 
 123   0.0000       1.877334        51.0849 
 124   0.0000       1.897157        51.6243 
 125   0.0000       1.968611        53.5686 
 126   0.0000       1.968694        53.5709 
 127   0.0000       2.007618        54.6301 
 128   0.0000       2.007862        54.6367 
 129   0.0000       2.031691        55.2851 
 130   0.0000       2.058503        56.0147 
 131   0.0000       2.089401        56.8555 
 132   0.0000       2.145628        58.3855 
 133   0.0000       2.151955        58.5577 
 134   0.0000       2.169483        59.0346 
 135   0.0000       2.171482        59.0890 
 136   0.0000       2.263081        61.5816 
 137   0.0000       2.288101        62.2624 
 138   0.0000       2.312968        62.9391 
 139   0.0000       2.358188        64.1696 
 140   0.0000       2.399103        65.2829 
 141   0.0000       2.415975        65.7420 
 142   0.0000       2.426255        66.0218 
 143   0.0000       2.454942        66.8024 
 144   0.0000       2.464374        67.0590 
 145   0.0000       2.493560        67.8532 
 146   0.0000       2.529048        68.8189 
 147   0.0000       2.545952        69.2789 
 148   0.0000       2.562025        69.7162 
 149   0.0000       2.583907        70.3117 
 150   0.0000       2.589613        70.4670 
 151   0.0000       2.603018        70.8317 
 152   0.0000       2.625156        71.4341 
 153   0.0000       2.628303        71.5198 
 154   0.0000       2.647154        72.0327 
 155   0.0000       2.653195        72.1971 
 156   0.0000       2.686778        73.1109 
 157   0.0000       2.695732        73.3546 
 158   0.0000       2.722271        74.0768 
 159   0.0000       2.726183        74.1832 
 160   0.0000       2.736313        74.4589 
 161   0.0000       2.754951        74.9660 
 162   0.0000       2.777252        75.5729 
 163   0.0000       2.819353        76.7185 
 164   0.0000       2.820349        76.7456 
 165   0.0000       2.849277        77.5328 
 166   0.0000       2.861392        77.8624 
 167   0.0000       2.903655        79.0125 
 168   0.0000       2.928721        79.6945 
 169   0.0000       2.956555        80.4519 
 170   0.0000       3.019075        82.1532 
 171   0.0000       3.048809        82.9623 
 172   0.0000       3.061964        83.3203 
 173   0.0000       3.069556        83.5269 
 174   0.0000       3.071922        83.5912 
 175   0.0000       3.112477        84.6948 
 176   0.0000       3.116171        84.7953 
 177   0.0000       3.129114        85.1475 
 178   0.0000       3.194192        86.9184 
 179   0.0000       3.198973        87.0485 
 180   0.0000       3.202663        87.1489 
 181   0.0000       3.239954        88.1636 
 182   0.0000       3.248410        88.3937 
 183   0.0000       3.259906        88.7065 
 184   0.0000       3.276147        89.1485 
 185   0.0000       3.299541        89.7851 
 186   0.0000       3.310611        90.0863 
 187   0.0000       3.318180        90.2923 
 188   0.0000       3.326557        90.5202 
 189   0.0000       3.340268        90.8933 
 190   0.0000       3.389883        92.2434 
 191   0.0000       3.422153        93.1215 
 192   0.0000       3.436163        93.5028 
 193   0.0000       3.451192        93.9117 
 194   0.0000       3.460153        94.1556 
 195   0.0000       3.483183        94.7822 
 196   0.0000       3.497836        95.1810 
 197   0.0000       3.557049        96.7922 
 198   0.0000       3.558795        96.8397 
 199   0.0000       3.575412        97.2919 
 200   0.0000       3.589386        97.6722 
 201   0.0000       3.642304        99.1121 
 202   0.0000       3.657832        99.5347 
 203   0.0000       3.720601       101.2427 
 204   0.0000       3.761867       102.3656 
 205   0.0000       3.783993       102.9677 
 206   0.0000       3.804634       103.5294 
 207   0.0000       3.819920       103.9453 
 208   0.0000       3.830300       104.2278 
 209   0.0000       3.937460       107.1437 
 210   0.0000       3.957859       107.6988 
 211   0.0000       3.988663       108.5370 
 212   0.0000       4.015863       109.2772 
 213   0.0000       4.053234       110.2941 
 214   0.0000       4.057382       110.4070 
 215   0.0000       4.067107       110.6716 
 216   0.0000       4.085387       111.1690 
 217   0.0000       4.123001       112.1926 
 218   0.0000       4.143402       112.7477 
 219   0.0000       4.226470       115.0081 
 220   0.0000       4.236594       115.2836 
 221   0.0000       4.291636       116.7813 
 222   0.0000       4.349435       118.3541 
 223   0.0000       4.425155       120.4146 
 224   0.0000       4.429740       120.5394 
 225   0.0000       4.455261       121.2338 
 226   0.0000       4.493071       122.2627 
 227   0.0000       4.502967       122.5320 
 228   0.0000       4.616326       125.6166 
 229   0.0000       4.683987       127.4578 
 230   0.0000       4.721514       128.4789 
 231   0.0000       4.742098       129.0390 
 232   0.0000       4.794890       130.4756 
 233   0.0000       4.804534       130.7380 
 234   0.0000       4.861744       132.2948 
 235   0.0000       4.924952       134.0148 
 236   0.0000       4.966304       135.1400 
 237   0.0000       5.009516       136.3159 
 238   0.0000       5.100774       138.7991 
 239   0.0000       5.294124       144.0604 
 240   0.0000      22.205671       604.2470 
 241   0.0000      22.479916       611.7096 
 242   0.0000      22.560757       613.9094 
 243   0.0000      22.585493       614.5825 
 244   0.0000      22.588657       614.6686 
 245   0.0000      22.926751       623.8686 

                    ********************************
                    * MULLIKEN POPULATION ANALYSIS *
                    ********************************

-----------------------
MULLIKEN ATOMIC CHARGES
-----------------------
   0 C :   -0.186527
   1 C :   -0.187529
   2 C :   -0.139566
   3 C :   -0.193977
   4 C :   -0.193885
   5 C :   -0.140070
   6 H :    0.108947
   7 H :    0.109067
   8 H :    0.108521
   9 H :    0.100825
  10 H :    0.094910
  11 H :    0.107592
  12 H :    0.107628
  13 H :    0.094695
  14 H :    0.108493
  15 H :    0.100875
Sum of atomic charges:    0.0000000

--------------------------------
MULLIKEN REDUCED ORBITAL CHARGES
--------------------------------
  0 C s       :     3.202401  s :     3.202401
      pz      :     0.981052  p :     2.880275
      px      :     0.955005
      py      :     0.944219
      dz2     :     0.004560  d :     0.096993
      dxz     :     0.020306
      dyz     :     0.010360
      dx2y2   :     0.022505
      dxy     :     0.039262
      f0      :     0.001282  f :     0.006858
      f+1     :     0.000489
      f-1     :     0.000693
      f+2     :     0.000989
      f-2     :     0.000430
      f+3     :     0.001151
      f-3     :     0.001824
  1 C s       :     3.202977  s :     3.202977
      pz      :     0.986069  p :     2.880663
      px      :     0.940450
      py      :     0.954144
      dz2     :     0.004596  d :     0.097031
      dxz     :     0.025741
      dyz     :     0.004603
      dx2y2   :     0.027572
      dxy     :     0.034518
      f0      :     0.001291  f :     0.006858
      f+1     :     0.000572
      f-1     :     0.000650
      f+2     :     0.000565
      f-2     :     0.000747
      f+3     :     0.001276
      f-3     :     0.001757
  2 C s       :     3.119713  s :     3.119713
      pz      :     1.014792  p :     2.916302
      px      :     0.989831
      py      :     0.911679
      dz2     :     0.009101  d :     0.098174
      dxz     :     0.023331
      dyz     :     0.018361
      dx2y2   :     0.027120
      dxy     :     0.020261
      f0      :     0.000654  f :     0.005377
      f+1     :     0.000878
      f-1     :     0.000248
      f+2     :     0.000286
      f-2     :     0.000783
      f+3     :     0.001113
      f-3     :     0.001415
  3 C s       :     3.174944  s :     3.174944
      pz      :     0.998432  p :     2.915523
      px      :     0.955286
      py      :     0.961805
      dz2     :     0.023090  d :     0.097955
      dxz     :     0.014001
      dyz     :     0.014548
      dx2y2   :     0.015777
      dxy     :     0.030539
      f0      :     0.000865  f :     0.005555
      f+1     :     0.001002
      f-1     :     0.000209
      f+2     :     0.000446
      f-2     :     0.000831
      f+3     :     0.000922
      f-3     :     0.001280
  4 C s       :     3.174927  s :     3.174927
      pz      :     0.990869  p :     2.915465
      px      :     0.926393
      py      :     0.998204
      dz2     :     0.026974  d :     0.097936
      dxz     :     0.017909
      dyz     :     0.006774
      dx2y2   :     0.022806
      dxy     :     0.023474
      f0      :     0.000643  f :     0.005556
      f+1     :     0.001220
      f-1     :     0.000370
      f+2     :     0.000481
      f-2     :     0.000819
      f+3     :     0.001070
      f-3     :     0.000955
  5 C s       :     3.120160  s :     3.120160
      pz      :     1.002306  p :     2.916371
      px      :     0.999217
      py      :     0.914848
      dz2     :     0.012116  d :     0.098162
      dxz     :     0.022151
      dyz     :     0.018683
      dx2y2   :     0.028483
      dxy     :     0.016729
      f0      :     0.000366  f :     0.005378
      f+1     :     0.000856
      f-1     :     0.000552
      f+2     :     0.000433
      f-2     :     0.000951
      f+3     :     0.001015
      f-3     :     0.001204
  6 H s       :     0.869213  s :     0.869213
      pz      :     0.005002  p :     0.021840
      px      :     0.007152
      py      :     0.009685
  7 H s       :     0.869090  s :     0.869090
      pz      :     0.005121  p :     0.021843
      px      :     0.004565
      py      :     0.012157
  8 H s       :     0.870208  s :     0.870208
      pz      :     0.007987  p :     0.021270
      px      :     0.008906
      py      :     0.004376
  9 H s       :     0.878132  s :     0.878132
      pz      :     0.010364  p :     0.021043
      px      :     0.006465
      py      :     0.004213
 10 H s       :     0.884217  s :     0.884217
      pz      :     0.011862  p :     0.020873
      px      :     0.004464
      py      :     0.004547
 11 H s       :     0.871262  s :     0.871262
      pz      :     0.004780  p :     0.021146
      px      :     0.007794
      py      :     0.008571
 12 H s       :     0.871220  s :     0.871220
      pz      :     0.004281  p :     0.021151
      px      :     0.005396
      py      :     0.011474
 13 H s       :     0.884436  s :     0.884436
      pz      :     0.012002  p :     0.020869
      px      :     0.004453
      py      :     0.004414
 14 H s       :     0.870239  s :     0.870239
      pz      :     0.007609  p :     0.021268
      px      :     0.009342
      py      :     0.004316
 15 H s       :     0.878085  s :     0.878085
      pz      :     0.009831  p :     0.021040
      px      :     0.006101
      py      :     0.005108


                     *******************************
                     * LOEWDIN POPULATION ANALYSIS *
                     *******************************

----------------------
LOEWDIN ATOMIC CHARGES
----------------------
   0 C :   -0.180948
   1 C :   -0.180980
   2 C :   -0.262105
   3 C :   -0.263489
   4 C :   -0.263461
   5 C :   -0.262074
   6 H :    0.140548
   7 H :    0.140556
   8 H :    0.143355
   9 H :    0.145223
  10 H :    0.141676
  11 H :    0.135740
  12 H :    0.135745
  13 H :    0.141647
  14 H :    0.143339
  15 H :    0.145229

-------------------------------
LOEWDIN REDUCED ORBITAL CHARGES
-------------------------------
  0 C s       :     2.784429  s :     2.784429
      pz      :     0.903204  p :     2.963994
      px      :     1.075787
      py      :     0.985002
      dz2     :     0.026440  d :     0.392153
      dxz     :     0.059775
      dyz     :     0.041180
      dx2y2   :     0.098442
      dxy     :     0.166317
      f0      :     0.003186  f :     0.040372
      f+1     :     0.004006
      f-1     :     0.003220
      f+2     :     0.006295
      f-2     :     0.002415
      f+3     :     0.008580
      f-3     :     0.012669
  1 C s       :     2.784414  s :     2.784414
      pz      :     0.902791  p :     2.963981
      px      :     1.084459
      py      :     0.976731
      dz2     :     0.025219  d :     0.392207
      dxz     :     0.078698
      dyz     :     0.020214
      dx2y2   :     0.128186
      dxy     :     0.139889
      f0      :     0.003210  f :     0.040378
      f+1     :     0.004522
      f-1     :     0.002704
      f+2     :     0.003607
      f-2     :     0.004797
      f+3     :     0.009332
      f-3     :     0.012206
  2 C s       :     2.771403  s :     2.771403
      pz      :     1.020319  p :     3.049578
      px      :     1.004848
      py      :     1.024411
      dz2     :     0.046907  d :     0.402618
      dxz     :     0.099699
      dyz     :     0.060366
      dx2y2   :     0.103937
      dxy     :     0.091708
      f0      :     0.004232  f :     0.038506
      f+1     :     0.003823
      f-1     :     0.003546
      f+2     :     0.004910
      f-2     :     0.005375
      f+3     :     0.007267
      f-3     :     0.009353
  3 C s       :     2.776158  s :     2.776158
      pz      :     1.025826  p :     3.046788
      px      :     1.014018
      py      :     1.006944
      dz2     :     0.097258  d :     0.401752
      dxz     :     0.060775
      dyz     :     0.054167
      dx2y2   :     0.071150
      dxy     :     0.118403
      f0      :     0.004710  f :     0.038792
      f+1     :     0.005797
      f-1     :     0.002684
      f+2     :     0.005246
      f-2     :     0.006601
      f+3     :     0.005650
      f-3     :     0.008103
  4 C s       :     2.776190  s :     2.776190
      pz      :     1.022800  p :     3.046803
      px      :     1.016594
      py      :     1.007409
      dz2     :     0.109611  d :     0.401681
      dxz     :     0.076276
      dyz     :     0.029488
      dx2y2   :     0.091825
      dxy     :     0.094481
      f0      :     0.003480  f :     0.038788
      f+1     :     0.007106
      f-1     :     0.003691
      f+2     :     0.004982
      f-2     :     0.006812
      f+3     :     0.006808
      f-3     :     0.005909
  5 C s       :     2.771441  s :     2.771441
      pz      :     1.020930  p :     3.049592
      px      :     1.003114
      py      :     1.025548
      dz2     :     0.048521  d :     0.402545
      dxz     :     0.096652
      dyz     :     0.071575
      dx2y2   :     0.102466
      dxy     :     0.083332
      f0      :     0.003159  f :     0.038495
      f+1     :     0.004408
      f-1     :     0.005749
      f+2     :     0.004473
      f-2     :     0.004909
      f+3     :     0.007057
      f-3     :     0.008740
  6 H s       :     0.800786  s :     0.800786
      pz      :     0.013893  p :     0.058666
      px      :     0.018988
      py      :     0.025785
  7 H s       :     0.800778  s :     0.800778
      pz      :     0.014118  p :     0.058665
      px      :     0.012880
      py      :     0.031668
  8 H s       :     0.798906  s :     0.798906
      pz      :     0.023182  p :     0.057739
      px      :     0.022084
      py      :     0.012474
  9 H s       :     0.797155  s :     0.797155
      pz      :     0.028932  p :     0.057622
      px      :     0.016340
      py      :     0.012350
 10 H s       :     0.800557  s :     0.800557
      pz      :     0.031419  p :     0.057767
      px      :     0.013546
      py      :     0.012802
 11 H s       :     0.806133  s :     0.806133
      pz      :     0.014688  p :     0.058127
      px      :     0.021274
      py      :     0.022165
 12 H s       :     0.806125  s :     0.806125
      pz      :     0.012739  p :     0.058130
      px      :     0.015334
      py      :     0.030057
 13 H s       :     0.800591  s :     0.800591
      pz      :     0.030882  p :     0.057762
      px      :     0.013416
      py      :     0.013465
 14 H s       :     0.798920  s :     0.798920
      pz      :     0.022087  p :     0.057741
      px      :     0.023267
      py      :     0.012388
 15 H s       :     0.797145  s :     0.797145
      pz      :     0.027579  p :     0.057626
      px      :     0.015682
      py      :     0.014365


                      *****************************
                      * MAYER POPULATION ANALYSIS *
                      *****************************

  NA   - Mulliken gross atomic population
  ZA   - Total nuclear charge
  QA   - Mulliken gross atomic charge
  VA   - Mayer's total valence
  BVA  - Mayer's bonded valence
  FA   - Mayer's free valence

  ATOM       NA         ZA         QA         VA         BVA        FA
  0 C      6.1865     6.0000    -0.1865     3.9906     3.9906     0.0000
  1 C      6.1875     6.0000    -0.1875     3.9913     3.9913    -0.0000
  2 C      6.1396     6.0000    -0.1396     3.9694     3.9694     0.0000
  3 C      6.1940     6.0000    -0.1940     4.0014     4.0014    -0.0000
  4 C      6.1939     6.0000    -0.1939     4.0016     4.0016     0.0000
  5 C      6.1401     6.0000    -0.1401     3.9699     3.9699     0.0000
  6 H      0.8911     1.0000     0.1089     0.9702     0.9702     0.0000
  7 H      0.8909     1.0000     0.1091     0.9701     0.9701    -0.0000
  8 H      0.8915     1.0000     0.1085     0.9660     0.9660     0.0000
  9 H      0.8992     1.0000     0.1008     0.9687     0.9687    -0.0000
 10 H      0.9051     1.0000     0.0949     0.9753     0.9753    -0.0000
 11 H      0.8924     1.0000     0.1076     0.9643     0.9643    -0.0000
 12 H      0.8924     1.0000     0.1076     0.9643     0.9643     0.0000
 13 H      0.9053     1.0000     0.0947     0.9753     0.9753    -0.0000
 14 H      0.8915     1.0000     0.1085     0.9661     0.9661     0.0000
 15 H      0.8991     1.0000     0.1009     0.9687     0.9687     0.0000

  Mayer bond orders larger than 0.100000
B(  0-C ,  1-C ) :   1.9476 B(  0-C ,  5-C ) :   1.0128 B(  0-C ,  6-H ) :   0.9557 
B(  1-C ,  2-C ) :   1.0130 B(  1-C ,  7-H ) :   0.9557 B(  2-C ,  3-C ) :   1.0366 
B(  2-C ,  8-H ) :   0.9489 B(  2-C ,  9-H ) :   0.9361 B(  3-C ,  4-C ) :   0.9970 
B(  3-C , 10-H ) :   0.9596 B(  3-C , 11-H ) :   0.9577 B(  4-C ,  5-C ) :   1.0370 
B(  4-C , 12-H ) :   0.9579 B(  4-C , 13-H ) :   0.9594 B(  5-C , 14-H ) :   0.9489 
B(  5-C , 15-H ) :   0.9360 


------------------
HIRSHFELD ANALYSIS
------------------

Total integrated alpha density =     23.000018847
Total integrated beta density  =     23.000018847

  ATOM     CHARGE      SPIN    
   0 C   -0.049965    0.000000
   1 C   -0.049940    0.000000
   2 C   -0.045794    0.000000
   3 C   -0.043637    0.000000
   4 C   -0.043653    0.000000
   5 C   -0.045816    0.000000
   6 H    0.030477    0.000000
   7 H    0.030491    0.000000
   8 H    0.030079    0.000000
   9 H    0.027996    0.000000
  10 H    0.024705    0.000000
  11 H    0.026101    0.000000
  12 H    0.026115    0.000000
  13 H    0.024727    0.000000
  14 H    0.030064    0.000000
  15 H    0.028012    0.000000

  TOTAL  -0.000038    0.000000

-------
TIMINGS
-------

Total SCF time: 0 days 0 hours 1 min 29 sec 

Total time                  ....      89.778 sec
Sum of individual times     ....      89.574 sec  ( 99.8%)

Fock matrix formation       ....      86.288 sec  ( 96.1%)
  Split-RI-J                ....       5.244 sec  (  6.1% of F)
  Chain of spheres X        ....      68.427 sec  ( 79.3% of F)
  XC integration            ....      12.583 sec  ( 14.6% of F)
    Basis function eval.    ....       3.174 sec  ( 25.2% of XC)
    Density eval.           ....       3.699 sec  ( 29.4% of XC)
    XC-Functional eval.     ....       0.421 sec  (  3.3% of XC)
    XC-Potential eval.      ....       5.004 sec  ( 39.8% of XC)
Diagonalization             ....       0.066 sec  (  0.1%)
Density matrix formation    ....       0.007 sec  (  0.0%)
Population analysis         ....       0.588 sec  (  0.7%)
Initial guess               ....       0.642 sec  (  0.7%)
Orbital Transformation      ....       0.000 sec  (  0.0%)
Orbital Orthonormalization  ....       0.000 sec  (  0.0%)
DIIS solution               ....       0.016 sec  (  0.0%)
SOSCF solution              ....       0.025 sec  (  0.0%)
Grid generation             ....       1.942 sec  (  2.2%)

Maximum memory used throughout the entire SCF-calculation: 133.1 MB


-------------------------------------------------------------------------------
                          DFT DISPERSION CORRECTION                            
                                                                               
                              DFTD3 V3.1  Rev 1                                
                          USING Becke-Johnson damping                          
-------------------------------------------------------------------------------
The PBE0 functional is recognized
Active option DFTDOPT                   ...         4   

molecular C6(AA) [au] = 1997.589833 


            DFT-D V3
 parameters
 s6 scaling factor         :     1.0000 
 a1 scaling factor         :     0.4145 
 s8 scaling factor         :     1.2177 
 a2 scaling factor         :     4.8593 
 ad hoc parameters k1-k3   :    16.0000     1.3333    -4.0000 

 Edisp/kcal,au: -7.454963609839  -0.011880239459 
 E6   /kcal   :  -4.776595493 
 E8   /kcal   :  -2.678368117 
 % E8         :  35.927313093 

-------------------------   ----------------
Dispersion correction           -0.011880239
-------------------------   ----------------


-------------------------   --------------------
FINAL SINGLE POINT ENERGY      -234.451003692028
-------------------------   --------------------


                            ***************************************
                            *     ORCA property calculations      *
                            ***************************************

                                    ---------------------
                                    Active property flags
                                    ---------------------
   (+) Dipole Moment


------------------------------------------------------------------------------
                       ORCA ELECTRIC PROPERTIES CALCULATION
------------------------------------------------------------------------------

Dipole Moment Calculation                       ... on
Quadrupole Moment Calculation                   ... off
Polarizability Calculation                      ... off
GBWName                                         ... p0_C6H10_sp_orca.gbw
Electron density                                ... p0_C6H10_sp_orca.scfp
The origin for moment calculation is the CENTER OF MASS  = (-0.038940, -0.225943 -0.036407)

-------------
DIPOLE MOMENT
-------------
                                X             Y             Z
Electronic contribution:     -0.31480      -1.82634      -0.29459
Nuclear contribution   :      0.33776       1.95907       0.31589
                        -----------------------------------------
Total Dipole Moment    :      0.02296       0.13273       0.02130
                        -----------------------------------------
Magnitude (a.u.)       :      0.13638
Magnitude (Debye)      :      0.34664



--------------------
Rotational spectrum 
--------------------
 
Rotational constants in cm-1:     0.158721     0.152082     0.085600 
Rotational constants in MHz :  4758.349743  4559.297049  2566.210063 

 Dipole components along the rotational axes: 
x,y,z [a.u.] :    -0.000085     0.136375    -0.000145 
x,y,z [Debye]:    -0.000217     0.346638    -0.000369 

 

Timings for individual modules:

Sum of individual times         ...       90.105 sec (=   1.502 min)
GTO integral calculation        ...        0.306 sec (=   0.005 min)   0.3 %
SCF iterations                  ...       89.799 sec (=   1.497 min)  99.7 %
                             ****ORCA TERMINATED NORMALLY****
TOTAL RUN TIME: 0 days 0 hours 1 minutes 30 seconds 321 msec
