
                                 *****************
                                 * O   R   C   A *
                                 *****************

                                            #,                                       
                                            ###                                      
                                            ####                                     
                                            #####                                    
                                            ######                                   
                                           ########,                                 
                                     ,,################,,,,,                         
                               ,,#################################,,                 
                          ,,##########################################,,             
                       ,#########################################, ''#####,          
                    ,#############################################,,   '####,        
                  ,##################################################,,,,####,       
                ,###########''''           ''''###############################       
              ,#####''   ,,,,##########,,,,          '''####'''          '####       
            ,##' ,,,,###########################,,,                        '##       
           ' ,,###''''                  '''############,,,                           
         ,,##''                                '''############,,,,        ,,,,,,###''
      ,#''                                            '''#######################'''  
     '                                                          ''''####''''         
             ,#######,   #######,   ,#######,      ##                                
            ,#'     '#,  ##    ##  ,#'     '#,    #''#        ######   ,####,        
            ##       ##  ##   ,#'  ##            #'  '#       #        #'  '#        
            ##       ##  #######   ##           ,######,      #####,   #    #        
            '#,     ,#'  ##    ##  '#,     ,#' ,#      #,         ##   #,  ,#        
             '#######'   ##     ##  '#######'  #'      '#     #####' # '####'        



                  #######################################################
                  #                        -***-                        #
                  #          Department of theory and spectroscopy      #
                  #    Directorship and core code : Frank Neese         #
                  #        Max Planck Institute fuer Kohlenforschung    #
                  #                Kaiser Wilhelm Platz 1               #
                  #                 D-45470 Muelheim/Ruhr               #
                  #                      Germany                        #
                  #                                                     #
                  #                  All rights reserved                #
                  #                        -***-                        #
                  #######################################################


                         Program Version 5.0.4 -  RELEASE  -


 With contributions from (in alphabetic order):
   Daniel Aravena         : Magnetic Suceptibility
   Michael Atanasov       : Ab Initio Ligand Field Theory (pilot matlab implementation)
   Alexander A. Auer      : GIAO ZORA, VPT2 properties, NMR spectrum
   Ute Becker             : Parallelization
   Giovanni Bistoni       : ED, misc. LED, open-shell LED, HFLD
   Martin Brehm           : Molecular dynamics
   Dmytro Bykov           : SCF Hessian
   Vijay G. Chilkuri      : MRCI spin determinant printing, contributions to CSF-ICE
   Dipayan Datta          : RHF DLPNO-CCSD density
   Achintya Kumar Dutta   : EOM-CC, STEOM-CC
   Dmitry Ganyushin       : Spin-Orbit,Spin-Spin,Magnetic field MRCI
   Miquel Garcia          : C-PCM and meta-GGA Hessian, CC/C-PCM, Gaussian charge scheme
   Yang Guo               : DLPNO-NEVPT2, F12-NEVPT2, CIM, IAO-localization
   Andreas Hansen         : Spin unrestricted coupled pair/coupled cluster methods
   Benjamin Helmich-Paris : MC-RPA, TRAH-SCF, COSX integrals
   Lee Huntington         : MR-EOM, pCC
   Robert Izsak           : Overlap fitted RIJCOSX, COSX-SCS-MP3, EOM
   Marcus Kettner         : VPT2
   Christian Kollmar      : KDIIS, OOCD, Brueckner-CCSD(T), CCSD density, CASPT2, CASPT2-K
   Simone Kossmann        : Meta GGA functionals, TD-DFT gradient, OOMP2, MP2 Hessian
   Martin Krupicka        : Initial AUTO-CI
   Lucas Lang             : DCDCAS
   Marvin Lechner         : AUTO-CI (C++ implementation), FIC-MRCC
   Dagmar Lenk            : GEPOL surface, SMD
   Dimitrios Liakos       : Extrapolation schemes; Compound Job, initial MDCI parallelization
   Dimitrios Manganas     : Further ROCIS development; embedding schemes
   Dimitrios Pantazis     : SARC Basis sets
   Anastasios Papadopoulos: AUTO-CI, single reference methods and gradients
   Taras Petrenko         : DFT Hessian,TD-DFT gradient, ASA, ECA, R-Raman, ABS, FL, XAS/XES, NRVS
   Peter Pinski           : DLPNO-MP2, DLPNO-MP2 Gradient
   Christoph Reimann      : Effective Core Potentials
   Marius Retegan         : Local ZFS, SOC
   Christoph Riplinger    : Optimizer, TS searches, QM/MM, DLPNO-CCSD(T), (RO)-DLPNO pert. Triples
   Tobias Risthaus        : Range-separated hybrids, TD-DFT gradient, RPA, STAB
   Michael Roemelt        : Original ROCIS implementation
   Masaaki Saitow         : Open-shell DLPNO-CCSD energy and density
   Barbara Sandhoefer     : DKH picture change effects
   Avijit Sen             : IP-ROCIS
   Kantharuban Sivalingam : CASSCF convergence, NEVPT2, FIC-MRCI
   Bernardo de Souza      : ESD, SOC TD-DFT
   Georgi Stoychev        : AutoAux, RI-MP2 NMR, DLPNO-MP2 response
   Willem Van den Heuvel  : Paramagnetic NMR
   Boris Wezisla          : Elementary symmetry handling
   Frank Wennmohs         : Technical directorship


 We gratefully acknowledge several colleagues who have allowed us to
 interface, adapt or use parts of their codes:
   Stefan Grimme, W. Hujo, H. Kruse, P. Pracht,  : VdW corrections, initial TS optimization,
                  C. Bannwarth, S. Ehlert          DFT functionals, gCP, sTDA/sTD-DF
   Ed Valeev, F. Pavosevic, A. Kumar             : LibInt (2-el integral package), F12 methods
   Garnet Chan, S. Sharma, J. Yang, R. Olivares  : DMRG
   Ulf Ekstrom                                   : XCFun DFT Library
   Mihaly Kallay                                 : mrcc  (arbitrary order and MRCC methods)
   Jiri Pittner, Ondrej Demel                    : Mk-CCSD
   Frank Weinhold                                : gennbo (NPA and NBO analysis)
   Christopher J. Cramer and Donald G. Truhlar   : smd solvation model
   Lars Goerigk                                  : TD-DFT with DH, B97 family of functionals
   V. Asgeirsson, H. Jonsson                     : NEB implementation
   FAccTs GmbH                                   : IRC, NEB, NEB-TS, DLPNO-Multilevel, CI-OPT
                                                   MM, QMMM, 2- and 3-layer-ONIOM, Crystal-QMMM,
                                                   LR-CPCM, SF, NACMEs, symmetry and pop. for TD-DFT,
                                                   nearIR, NL-DFT gradient (VV10), updates on ESD,
                                                   ML-optimized integration grids
   S Lehtola, MJT Oliveira, MAL Marques          : LibXC Library
   Liviu Ungur et al                             : ANISO software


 Your calculation uses the libint2 library for the computation of 2-el integrals
 For citations please refer to: http://libint.valeyev.net

 Your ORCA version has been built with support for libXC version: 5.1.0
 For citations please refer to: https://tddft.org/programs/libxc/

 This ORCA versions uses:
   CBLAS   interface :  Fast vector & matrix operations
   LAPACKE interface :  Fast linear algebra routines
   SCALAPACK package :  Parallel linear algebra routines
   Shared memory     :  Shared parallel matrices
   BLAS/LAPACK       :  OpenBLAS 0.3.15  USE64BITINT DYNAMIC_ARCH NO_AFFINITY Haswell SINGLE_THREADED
        Core in use  :  Haswell
   Copyright (c) 2011-2014, The OpenBLAS Project


Your calculation utilizes the atom-pairwise dispersion correction
with the Becke-Johnson damping scheme (D3BJ)
Cite in your paper:
S.Grimme, S.Ehrlich, L.Goerigk, J Comput Chem, (2011), 32, 1456–1465 
S.Grimme, J.Antony, S.Ehrlich and H.Krieg, J.Chem.Phys., 132, (2010), 154104 
   

================================================================================

----- Orbital basis set information -----
Your calculation utilizes the basis: def2-TZVP
   F. Weigend and R. Ahlrichs, Phys. Chem. Chem. Phys. 7, 3297 (2005).

----- AuxJ basis set information -----
Your calculation utilizes the auxiliary basis: def2/J
   F. Weigend, Phys. Chem. Chem. Phys. 8, 1057 (2006).

================================================================================
                                        WARNINGS
                       Please study these warnings very carefully!
================================================================================


INFO   : the flag for use of the SHARK integral package has been found!

================================================================================
                                       INPUT FILE
================================================================================
NAME = r1_C2H4_sp_orca.inp
|  1> ! SP PBE0 RIJCOSX D3BJ def2-TZVP def2/J 
|  2> %output 
|  3> xyzfile=True 
|  4> end 
|  5> %scf 
|  6> maxiter 250 
|  7> end
|  8> %output
|  9> Print[P_Hirshfeld] = 1
| 10> end
| 11> % maxcore
| 12> 4000
| 13> *xyz 0 1
| 14> C    0.66404200   0.03918274   0.01041237 
| 15> C   -0.66404124  -0.03918116  -0.01037914 
| 16> H    1.29227049  -0.85634231   0.04054684 
| 17> H    1.18336413   1.00232672  -0.00151501 
| 18> H   -1.29227447   0.85634091  -0.04051237 
| 19> H   -1.18336091  -1.00232690   0.00154731 
| 20> *
| 21> 
| 22>                          ****END OF INPUT****
================================================================================

                       ****************************
                       * Single Point Calculation *
                       ****************************

---------------------------------
CARTESIAN COORDINATES (ANGSTROEM)
---------------------------------
  C      0.664042    0.039183    0.010412
  C     -0.664041   -0.039181   -0.010379
  H      1.292270   -0.856342    0.040547
  H      1.183364    1.002327   -0.001515
  H     -1.292274    0.856341   -0.040512
  H     -1.183361   -1.002327    0.001547

----------------------------
CARTESIAN COORDINATES (A.U.)
----------------------------
  NO LB      ZA    FRAG     MASS         X           Y           Z
   0 C     6.0000    0    12.011    1.254858    0.074045    0.019677
   1 C     6.0000    0    12.011   -1.254856   -0.074042   -0.019614
   2 H     1.0000    0     1.008    2.442037   -1.618252    0.076622
   3 H     1.0000    0     1.008    2.236234    1.894123   -0.002863
   4 H     1.0000    0     1.008   -2.442045    1.618250   -0.076557
   5 H     1.0000    0     1.008   -2.236228   -1.894123    0.002924

--------------------------------
INTERNAL COORDINATES (ANGSTROEM)
--------------------------------
 C      0   0   0     0.000000000000     0.00000000     0.00000000
 C      1   0   0     1.330555628330     0.00000000     0.00000000
 H      1   2   0     1.094323643676   121.68483030     0.00000000
 H      1   2   3     1.094296149729   121.69225396   180.01475359
 H      2   1   3     1.094323892037   121.68512298   179.99992279
 H      2   1   3     1.094296521213   121.69209813     0.00000000

---------------------------
INTERNAL COORDINATES (A.U.)
---------------------------
 C      0   0   0     0.000000000000     0.00000000     0.00000000
 C      1   0   0     2.514385743491     0.00000000     0.00000000
 H      1   2   0     2.067971988422   121.68483030     0.00000000
 H      1   2   3     2.067920032392   121.69225396   180.01475359
 H      2   1   3     2.067972457757   121.68512298   179.99992279
 H      2   1   3     2.067920734395   121.69209813     0.00000000

---------------------
BASIS SET INFORMATION
---------------------
There are 2 groups of distinct atoms

 Group   1 Type C   : 11s6p2d1f contracted to 5s3p2d1f pattern {62111/411/11/1}
 Group   2 Type H   : 5s1p contracted to 3s1p pattern {311/1}

Atom   0C    basis set group =>   1
Atom   1C    basis set group =>   1
Atom   2H    basis set group =>   2
Atom   3H    basis set group =>   2
Atom   4H    basis set group =>   2
Atom   5H    basis set group =>   2
---------------------------------
AUXILIARY/J BASIS SET INFORMATION
---------------------------------
There are 2 groups of distinct atoms

 Group   1 Type C   : 12s5p4d2f1g contracted to 6s4p3d1f1g pattern {711111/2111/211/2/1}
 Group   2 Type H   : 5s2p1d contracted to 3s1p1d pattern {311/2/1}

Atom   0C    basis set group =>   1
Atom   1C    basis set group =>   1
Atom   2H    basis set group =>   2
Atom   3H    basis set group =>   2
Atom   4H    basis set group =>   2
Atom   5H    basis set group =>   2
------------------------------------------------------------------------------
                           ORCA GTO INTEGRAL CALCULATION
                           -- RI-GTO INTEGRALS CHOSEN --
------------------------------------------------------------------------------
------------------------------------------------------------------------------
                   ___                                                        
                  /   \      - P O W E R E D   B Y -                         
                 /     \                                                     
                 |  |  |   _    _      __       _____    __    __             
                 |  |  |  | |  | |    /  \     |  _  \  |  |  /  |          
                  \  \/   | |  | |   /    \    | | | |  |  | /  /          
                 / \  \   | |__| |  /  /\  \   | |_| |  |  |/  /          
                |  |  |   |  __  | /  /__\  \  |    /   |      \           
                |  |  |   | |  | | |   __   |  |    \   |  |\   \          
                \     /   | |  | | |  |  |  |  | |\  \  |  | \   \       
                 \___/    |_|  |_| |__|  |__|  |_| \__\ |__|  \__/        
                                                                              
                      - O R C A' S   B I G   F R I E N D -                    
                                      &                                       
                       - I N T E G R A L  F E E D E R -                       
                                                                              
 v1 FN, 2020, v2 2021                                                         
------------------------------------------------------------------------------


Reading SHARK input file r1_C2H4_sp_orca.SHARKINP.tmp ... ok
----------------------
SHARK INTEGRAL PACKAGE
----------------------

Number of atoms                             ...      6
Number of basis functions                   ...     86
Number of shells                            ...     38
Maximum angular momentum                    ...      3
Integral batch strategy                     ... SHARK/LIBINT Hybrid
RI-J (if used) integral strategy            ... SPLIT-RIJ (Revised 2003 algorithm where possible)
Printlevel                                  ...      1
Contraction scheme used                     ... SEGMENTED contraction
Coulomb Range Separation                    ... NOT USED
Exchange Range Separation                   ... NOT USED
Finite Nucleus Model                        ... NOT USED
Auxiliary Coulomb fitting basis             ... AVAILABLE
   # of basis functions in Aux-J            ...    142
   # of shells in Aux-J                     ...     50
   Maximum angular momentum in Aux-J        ...      4
Auxiliary J/K fitting basis                 ... NOT available
Auxiliary Correlation fitting basis         ... NOT available
Auxiliary 'external' fitting basis          ... NOT available
Integral threshold                          ...     1.000000e-10
Primitive cut-off                           ...     1.000000e-11
Primitive pair pre-selection threshold      ...     1.000000e-11

Calculating pre-screening integrals         ... done (  0.0 sec) Dimension = 38
Organizing shell pair data                  ... done (  0.0 sec)
Shell pair information
Total number of shell pairs                 ...       741
Shell pairs after pre-screening             ...       740
Total number of primitive shell pairs       ...      2136
Primitive shell pairs kept                  ...      1909
          la=0 lb=0:    252 shell pairs
          la=1 lb=0:    220 shell pairs
          la=1 lb=1:     55 shell pairs
          la=2 lb=0:     88 shell pairs
          la=2 lb=1:     40 shell pairs
          la=2 lb=2:     10 shell pairs
          la=3 lb=0:     44 shell pairs
          la=3 lb=1:     20 shell pairs
          la=3 lb=2:      8 shell pairs
          la=3 lb=3:      3 shell pairs

Calculating one electron integrals          ... done (  0.0 sec)
Calculating RI/J V-Matrix + Cholesky decomp.... done (  0.0 sec)
Calculating Nuclear repulsion               ... done (  0.0 sec) ENN=     33.248112316997 Eh

SHARK setup successfully completed in   0.1 seconds

Maximum memory used throughout the entire GTOINT-calculation: 14.4 MB
-------------------------------------------------------------------------------
                                 ORCA SCF
-------------------------------------------------------------------------------

------------
SCF SETTINGS
------------
Hamiltonian:
 Density Functional     Method          .... DFT(GTOs)
 Exchange Functional    Exchange        .... PBE
   PBE kappa parameter   XKappa         ....  0.804000
   PBE mue parameter    XMuePBE         ....  0.219520
 Correlation Functional Correlation     .... PBE
   PBE beta parameter  CBetaPBE         ....  0.066725
 LDA part of GGA corr.  LDAOpt          .... PW91-LDA
 Gradients option       PostSCFGGA      .... off
 Hybrid DFT is turned on
   Fraction HF Exchange ScalHFX         ....  0.250000
   Scaling of DF-GGA-X  ScalDFX         ....  0.750000
   Scaling of DF-GGA-C  ScalDFC         ....  1.000000
   Scaling of DF-LDA-C  ScalLDAC        ....  1.000000
   Perturbative correction              ....  0.000000
   Density functional embedding theory  .... OFF
   NL short-range parameter             ....  6.900000
 RI-approximation to the Coulomb term is turned on
   Number of AuxJ basis functions       .... 142
   RIJ-COSX (HFX calculated with COS-X)).... on


General Settings:
 Integral files         IntName         .... r1_C2H4_sp_orca
 Hartree-Fock type      HFTyp           .... RHF
 Total Charge           Charge          ....    0
 Multiplicity           Mult            ....    1
 Number of Electrons    NEL             ....   16
 Basis Dimension        Dim             ....   86
 Nuclear Repulsion      ENuc            ....     33.2481123170 Eh

Convergence Acceleration:
 DIIS                   CNVDIIS         .... on
   Start iteration      DIISMaxIt       ....    12
   Startup error        DIISStart       ....  0.200000
   # of expansion vecs  DIISMaxEq       ....     5
   Bias factor          DIISBfac        ....   1.050
   Max. coefficient     DIISMaxC        ....  10.000
 Trust-Rad. Augm. Hess. CNVTRAH         .... auto
   Auto Start mean grad. ratio tolernc. ....  1.125000
   Auto Start start iteration           ....    20
   Auto Start num. interpolation iter.  ....    10
   Max. Number of Micro iterations      ....    16
   Max. Number of Macro iterations      .... Maxiter - #DIIS iter
   Number of Davidson start vectors     ....     2
   Converg. threshold I  (grad. norm)   ....   5.000e-05
   Converg. threshold II (energy diff.) ....   1.000e-06
   Grad. Scal. Fac. for Micro threshold ....   0.100
   Minimum threshold for Micro iter.    ....   0.010
   NR start threshold (gradient norm)   ....   0.001
   Initial trust radius                 ....   0.400
   Minimum AH scaling param. (alpha)    ....   1.000
   Maximum AH scaling param. (alpha)    .... 1000.000
   Orbital update algorithm             .... Taylor
   White noise on init. David. guess    .... on
   Maximum white noise                  ....   0.010
   Quad. conv. algorithm                .... NR
 SOSCF                  CNVSOSCF        .... on
   Start iteration      SOSCFMaxIt      ....   150
   Startup grad/error   SOSCFStart      ....  0.003300
 Level Shifting         CNVShift        .... on
   Level shift para.    LevelShift      ....    0.2500
   Turn off err/grad.   ShiftErr        ....    0.0010
 Zerner damping         CNVZerner       .... off
 Static damping         CNVDamp         .... on
   Fraction old density DampFac         ....    0.7000
   Max. Damping (<1)    DampMax         ....    0.9800
   Min. Damping (>=0)   DampMin         ....    0.0000
   Turn off err/grad.   DampErr         ....    0.1000
 Fernandez-Rico         CNVRico         .... off

SCF Procedure:
 Maximum # iterations   MaxIter         ....   250
 SCF integral mode      SCFMode         .... Direct
   Integral package                     .... SHARK and LIBINT hybrid scheme
 Reset frequency        DirectResetFreq ....    20
 Integral Threshold     Thresh          ....  1.000e-10 Eh
 Primitive CutOff       TCut            ....  1.000e-11 Eh

Convergence Tolerance:
 Convergence Check Mode ConvCheckMode   .... Total+1el-Energy
 Convergence forced     ConvForced      .... 0
 Energy Change          TolE            ....  1.000e-06 Eh
 1-El. energy change                    ....  1.000e-03 Eh
 Orbital Gradient       TolG            ....  5.000e-05
 Orbital Rotation angle TolX            ....  5.000e-05
 DIIS Error             TolErr          ....  1.000e-06


Diagonalization of the overlap matrix:
Smallest eigenvalue                        ... 2.250e-04
Time for diagonalization                   ...    0.002 sec
Threshold for overlap eigenvalues          ... 1.000e-08
Number of eigenvalues below threshold      ... 0
Time for construction of square roots      ...    0.001 sec
Total time needed                          ...    0.002 sec

Time for model grid setup =    0.031 sec

------------------------------
INITIAL GUESS: MODEL POTENTIAL
------------------------------
Loading Hartree-Fock densities                     ... done
Calculating cut-offs                               ... done
Initializing the effective Hamiltonian             ... done
Setting up the integral package (SHARK)            ... done
Starting the Coulomb interaction                   ... done (   0.0 sec)
Reading the grid                                   ... done
Mapping shells                                     ... done
Starting the XC term evaluation                    ... done (   0.0 sec)
  promolecular density results
     # of electrons  =     15.998724567
     EX              =    -11.347499717
     EC              =     -0.487848350
     EX+EC           =    -11.835348068
Transforming the Hamiltonian                       ... done (   0.0 sec)
Diagonalizing the Hamiltonian                      ... done (   0.0 sec)
Back transforming the eigenvectors                 ... done (   0.0 sec)
Now organizing SCF variables                       ... done
                      ------------------
                      INITIAL GUESS DONE (   0.1 sec)
                      ------------------
-------------------
DFT GRID GENERATION
-------------------

General Integration Accuracy     IntAcc      ... 4.388
Radial Grid Type                 RadialGrid  ... OptM3 with GC (2021)
Angular Grid (max. ang.)         AngularGrid ... 4 (Lebedev-302)
Angular grid pruning method      GridPruning ... 4 (adaptive)
Weight generation scheme         WeightScheme... Becke
Basis function cutoff            BFCut       ... 1.0000e-10
Integration weight cutoff        WCut        ... 1.0000e-14
Angular grids for H and He will be reduced by one unit
Partially contracted basis set               ... off
Rotationally invariant grid construction     ... off

Total number of grid points                  ...    25300
Total number of batches                      ...      400
Average number of points per batch           ...       63
Average number of grid points per atom       ...     4217
Time for grid setup =    0.157 sec

--------------------
COSX GRID GENERATION
--------------------

GRIDX 1
-------
General Integration Accuracy     IntAcc      ... 3.816
Radial Grid Type                 RadialGrid  ... OptM3 with GC (2021)
Angular Grid (max. ang.)         AngularGrid ... 1 (Lebedev-50)
Angular grid pruning method      GridPruning ... 4 (adaptive)
Weight generation scheme         WeightScheme... Becke
Basis function cutoff            BFCut       ... 1.0000e-10
Integration weight cutoff        WCut        ... 1.0000e-14
Angular grids for H and He will be reduced by one unit
Partially contracted basis set               ... on
Rotationally invariant grid construction     ... off

Total number of grid points                  ...     3282
Total number of batches                      ...       54
Average number of points per batch           ...       60
Average number of grid points per atom       ...      547
UseSFitting                                  ... on

GRIDX 2
-------
General Integration Accuracy     IntAcc      ... 4.020
Radial Grid Type                 RadialGrid  ... OptM3 with GC (2021)
Angular Grid (max. ang.)         AngularGrid ... 2 (Lebedev-110)
Angular grid pruning method      GridPruning ... 4 (adaptive)
Weight generation scheme         WeightScheme... Becke
Basis function cutoff            BFCut       ... 1.0000e-10
Integration weight cutoff        WCut        ... 1.0000e-14
Angular grids for H and He will be reduced by one unit
Partially contracted basis set               ... on
Rotationally invariant grid construction     ... off

Total number of grid points                  ...     6908
Total number of batches                      ...      110
Average number of points per batch           ...       62
Average number of grid points per atom       ...     1151
UseSFitting                                  ... on

GRIDX 3
-------
General Integration Accuracy     IntAcc      ... 4.338
Radial Grid Type                 RadialGrid  ... OptM3 with GC (2021)
Angular Grid (max. ang.)         AngularGrid ... 3 (Lebedev-194)
Angular grid pruning method      GridPruning ... 4 (adaptive)
Weight generation scheme         WeightScheme... Becke
Basis function cutoff            BFCut       ... 1.0000e-10
Integration weight cutoff        WCut        ... 1.0000e-14
Angular grids for H and He will be reduced by one unit
Partially contracted basis set               ... on
Rotationally invariant grid construction     ... off

Total number of grid points                  ...    15210
Total number of batches                      ...      240
Average number of points per batch           ...       63
Average number of grid points per atom       ...     2535
UseSFitting                                  ... on

Time for X-Grid setup             =    0.156 sec

--------------
SCF ITERATIONS
--------------
ITER       Energy         Delta-E        Max-DP      RMS-DP      [F,P]     Damp
               ***  Starting incremental Fock matrix formation  ***
  0    -78.4319358962   0.000000000000 0.02977884  0.00133181  0.1702356 0.7000
  1    -78.4681025050  -0.036166608836 0.02019372  0.00098319  0.0938870 0.7000
                               ***Turning on DIIS***
  2    -78.4840174002  -0.015914895170 0.03293929  0.00173444  0.0397217 0.0000
  3    -78.5052760422  -0.021258641995 0.01325978  0.00068816  0.0480747 0.0000
  4    -78.5116936340  -0.006417591868 0.00271046  0.00020638  0.0104787 0.0000
                      *** Initiating the SOSCF procedure ***
                           *** Shutting down DIIS ***
                      *** Re-Reading the Fockian *** 
                      *** Removing any level shift *** 
ITER      Energy       Delta-E        Grad      Rot      Max-DP    RMS-DP
  5    -78.51202544  -0.0003318079  0.001041  0.001041  0.001132  0.000081
               *** Restarting incremental Fock matrix formation ***
  6    -78.51203749  -0.0000120486  0.000412  0.000791  0.000763  0.000054
  7    -78.51203810  -0.0000006134  0.000220  0.000178  0.000195  0.000009
                 **** Energy Check signals convergence ****
              ***Rediagonalizing the Fockian in SOSCF/NRSCF***

               *****************************************************
               *                     SUCCESS                       *
               *           SCF CONVERGED AFTER   8 CYCLES          *
               *****************************************************

Old exchange energy                            =     -2.930698892 Eh
New exchange energy                            =     -2.930692496 Eh
Exchange energy change after final integration =      0.000006397 Eh
Total energy after final integration           =    -78.512032335 Eh
Final COS-X integration done in                =     1.155 sec

----------------
TOTAL SCF ENERGY
----------------

Total Energy       :          -78.51203233 Eh           -2136.42101 eV

Components:
Nuclear Repulsion  :           33.24811232 Eh             904.72713 eV
Electronic Energy  :         -111.76014465 Eh           -3041.14814 eV
One Electron Energy:         -170.10469187 Eh           -4628.78399 eV
Two Electron Energy:           58.34454722 Eh            1587.63584 eV
Max COSX asymmetry :            0.00000189 Eh               0.00005 eV

Virial components:
Potential Energy   :         -156.53780226 Eh           -4259.61015 eV
Kinetic Energy     :           78.02576993 Eh            2123.18914 eV
Virial Ratio       :            2.00623207


DFT components:
N(Alpha)           :        8.000008543780 electrons
N(Beta)            :        8.000008543780 electrons
N(Total)           :       16.000017087559 electrons
E(X)               :       -8.753560990297 Eh       
E(C)               :       -0.495553785867 Eh       
E(XC)              :       -9.249114776164 Eh       
DFET-embed. en.    :        0.000000000000 Eh       

---------------
SCF CONVERGENCE
---------------

  Last Energy change         ...   -6.2716e-07  Tolerance :   1.0000e-06
  Last MAX-Density change    ...    4.4409e-16  Tolerance :   1.0000e-05
  Last RMS-Density change    ...    1.8869e-17  Tolerance :   1.0000e-06
  Last Orbital Gradient      ...    1.8640e-05  Tolerance :   5.0000e-05
  Last Orbital Rotation      ...    2.1134e-05  Tolerance :   5.0000e-05

             **** THE GBW FILE WAS UPDATED (r1_C2H4_sp_orca.gbw) ****
             **** DENSITY r1_C2H4_sp_orca.scfp WAS UPDATED ****
             **** ENERGY FILE WAS UPDATED (r1_C2H4_sp_orca.en.tmp) ****
             **** THE GBW FILE WAS UPDATED (r1_C2H4_sp_orca.gbw) ****
             **** DENSITY r1_C2H4_sp_orca.scfp WAS UPDATED ****
----------------
ORBITAL ENERGIES
----------------

  NO   OCC          E(Eh)            E(eV) 
   0   2.0000     -10.225477      -278.2494 
   1   2.0000     -10.224527      -278.2235 
   2   2.0000      -0.784198       -21.3391 
   3   2.0000      -0.595914       -16.2156 
   4   2.0000      -0.482851       -13.1390 
   5   2.0000      -0.434082       -11.8120 
   6   2.0000      -0.365590        -9.9482 
   7   2.0000      -0.289421        -7.8755 
   8   0.0000       0.003531         0.0961 
   9   0.0000       0.076565         2.0834 
  10   0.0000       0.098838         2.6895 
  11   0.0000       0.101330         2.7573 
  12   0.0000       0.162660         4.4262 
  13   0.0000       0.203509         5.5378 
  14   0.0000       0.221948         6.0395 
  15   0.0000       0.230574         6.2742 
  16   0.0000       0.230780         6.2798 
  17   0.0000       0.279087         7.5944 
  18   0.0000       0.323465         8.8019 
  19   0.0000       0.353260         9.6127 
  20   0.0000       0.427148        11.6233 
  21   0.0000       0.464822        12.6485 
  22   0.0000       0.467703        12.7268 
  23   0.0000       0.503970        13.7137 
  24   0.0000       0.548080        14.9140 
  25   0.0000       0.576711        15.6931 
  26   0.0000       0.636405        17.3175 
  27   0.0000       0.726880        19.7794 
  28   0.0000       0.779505        21.2114 
  29   0.0000       0.803600        21.8671 
  30   0.0000       0.896718        24.4009 
  31   0.0000       0.966589        26.3022 
  32   0.0000       1.069725        29.1087 
  33   0.0000       1.093340        29.7513 
  34   0.0000       1.116634        30.3852 
  35   0.0000       1.248589        33.9758 
  36   0.0000       1.331055        36.2198 
  37   0.0000       1.436014        39.0759 
  38   0.0000       1.552148        42.2361 
  39   0.0000       1.552254        42.2390 
  40   0.0000       1.609169        43.7877 
  41   0.0000       1.616704        43.9928 
  42   0.0000       1.705261        46.4025 
  43   0.0000       1.727525        47.0084 
  44   0.0000       1.754766        47.7496 
  45   0.0000       1.804447        49.1015 
  46   0.0000       1.811464        49.2924 
  47   0.0000       1.837748        50.0077 
  48   0.0000       2.029550        55.2269 
  49   0.0000       2.192791        59.6689 
  50   0.0000       2.247019        61.1445 
  51   0.0000       2.311131        62.8891 
  52   0.0000       2.353446        64.0405 
  53   0.0000       2.408437        65.5369 
  54   0.0000       2.418487        65.8104 
  55   0.0000       2.521071        68.6018 
  56   0.0000       2.604177        70.8633 
  57   0.0000       2.610465        71.0344 
  58   0.0000       2.626229        71.4633 
  59   0.0000       2.773516        75.4712 
  60   0.0000       2.838656        77.2437 
  61   0.0000       2.933968        79.8373 
  62   0.0000       2.944577        80.1260 
  63   0.0000       2.994041        81.4720 
  64   0.0000       3.046430        82.8976 
  65   0.0000       3.097291        84.2816 
  66   0.0000       3.136009        85.3352 
  67   0.0000       3.151946        85.7688 
  68   0.0000       3.169688        86.2516 
  69   0.0000       3.305062        89.9353 
  70   0.0000       3.369300        91.6833 
  71   0.0000       3.386292        92.1457 
  72   0.0000       3.421914        93.1150 
  73   0.0000       3.466810        94.3367 
  74   0.0000       3.629168        98.7547 
  75   0.0000       3.707568       100.8881 
  76   0.0000       4.084913       111.1561 
  77   0.0000       4.113394       111.9311 
  78   0.0000       4.194997       114.1517 
  79   0.0000       4.357919       118.5850 
  80   0.0000       4.404415       119.8502 
  81   0.0000       4.584750       124.7574 
  82   0.0000       4.611223       125.4778 
  83   0.0000       4.967045       135.1602 
  84   0.0000      21.986272       598.2769 
  85   0.0000      22.601927       615.0297 

                    ********************************
                    * MULLIKEN POPULATION ANALYSIS *
                    ********************************

-----------------------
MULLIKEN ATOMIC CHARGES
-----------------------
   0 C :   -0.253623
   1 C :   -0.253618
   2 H :    0.126778
   3 H :    0.126844
   4 H :    0.126776
   5 H :    0.126843
Sum of atomic charges:    0.0000000

--------------------------------
MULLIKEN REDUCED ORBITAL CHARGES
--------------------------------
  0 C s       :     3.235841  s :     3.235841
      pz      :     0.978619  p :     2.965597
      px      :     0.973150
      py      :     1.013828
      dz2     :     0.004365  d :     0.047472
      dxz     :     0.010305
      dyz     :     0.000049
      dx2y2   :     0.005583
      dxy     :     0.027169
      f0      :     0.001168  f :     0.004714
      f+1     :     0.000446
      f-1     :     0.000566
      f+2     :     0.000572
      f-2     :     0.000011
      f+3     :     0.000895
      f-3     :     0.001056
  1 C s       :     3.235844  s :     3.235844
      pz      :     0.978619  p :     2.965591
      px      :     0.973144
      py      :     1.013828
      dz2     :     0.004364  d :     0.047470
      dxz     :     0.010305
      dyz     :     0.000049
      dx2y2   :     0.005583
      dxy     :     0.027167
      f0      :     0.001168  f :     0.004714
      f+1     :     0.000446
      f-1     :     0.000566
      f+2     :     0.000572
      f-2     :     0.000011
      f+3     :     0.000895
      f-3     :     0.001056
  2 H s       :     0.851569  s :     0.851569
      pz      :     0.004663  p :     0.021653
      px      :     0.006780
      py      :     0.010211
  3 H s       :     0.851500  s :     0.851500
      pz      :     0.004657  p :     0.021656
      px      :     0.005726
      py      :     0.011273
  4 H s       :     0.851570  s :     0.851570
      pz      :     0.004663  p :     0.021653
      px      :     0.006780
      py      :     0.010211
  5 H s       :     0.851501  s :     0.851501
      pz      :     0.004657  p :     0.021656
      px      :     0.005726
      py      :     0.011273


                     *******************************
                     * LOEWDIN POPULATION ANALYSIS *
                     *******************************

----------------------
LOEWDIN ATOMIC CHARGES
----------------------
   0 C :   -0.245305
   1 C :   -0.245305
   2 H :    0.122654
   3 H :    0.122651
   4 H :    0.122654
   5 H :    0.122651

-------------------------------
LOEWDIN REDUCED ORBITAL CHARGES
-------------------------------
  0 C s       :     2.875301  s :     2.875301
      pz      :     0.936981  p :     3.097620
      px      :     1.132452
      py      :     1.028187
      dz2     :     0.016498  d :     0.244679
      dxz     :     0.031056
      dyz     :     0.000164
      dx2y2   :     0.054472
      dxy     :     0.142491
      f0      :     0.002151  f :     0.027704
      f+1     :     0.004171
      f-1     :     0.002533
      f+2     :     0.003816
      f-2     :     0.000065
      f+3     :     0.006160
      f-3     :     0.008809
  1 C s       :     2.875301  s :     2.875301
      pz      :     0.936981  p :     3.097620
      px      :     1.132452
      py      :     1.028187
      dz2     :     0.016498  d :     0.244679
      dxz     :     0.031056
      dyz     :     0.000164
      dx2y2   :     0.054472
      dxy     :     0.142490
      f0      :     0.002151  f :     0.027704
      f+1     :     0.004171
      f-1     :     0.002533
      f+2     :     0.003816
      f-2     :     0.000065
      f+3     :     0.006160
      f-3     :     0.008809
  2 H s       :     0.816487  s :     0.816487
      pz      :     0.013023  p :     0.060859
      px      :     0.018008
      py      :     0.029828
  3 H s       :     0.816485  s :     0.816485
      pz      :     0.013009  p :     0.060864
      px      :     0.015522
      py      :     0.032333
  4 H s       :     0.816487  s :     0.816487
      pz      :     0.013023  p :     0.060859
      px      :     0.018008
      py      :     0.029828
  5 H s       :     0.816485  s :     0.816485
      pz      :     0.013009  p :     0.060864
      px      :     0.015522
      py      :     0.032333


                      *****************************
                      * MAYER POPULATION ANALYSIS *
                      *****************************

  NA   - Mulliken gross atomic population
  ZA   - Total nuclear charge
  QA   - Mulliken gross atomic charge
  VA   - Mayer's total valence
  BVA  - Mayer's bonded valence
  FA   - Mayer's free valence

  ATOM       NA         ZA         QA         VA         BVA        FA
  0 C      6.2536     6.0000    -0.2536     3.9335     3.9335     0.0000
  1 C      6.2536     6.0000    -0.2536     3.9335     3.9335     0.0000
  2 H      0.8732     1.0000     0.1268     0.9676     0.9676    -0.0000
  3 H      0.8732     1.0000     0.1268     0.9676     0.9676    -0.0000
  4 H      0.8732     1.0000     0.1268     0.9676     0.9676     0.0000
  5 H      0.8732     1.0000     0.1268     0.9676     0.9676    -0.0000

  Mayer bond orders larger than 0.100000
B(  0-C ,  1-C ) :   2.0099 B(  0-C ,  2-H ) :   0.9550 B(  0-C ,  3-H ) :   0.9550 
B(  1-C ,  4-H ) :   0.9550 B(  1-C ,  5-H ) :   0.9550 


------------------
HIRSHFELD ANALYSIS
------------------

Total integrated alpha density =      8.000008544
Total integrated beta density  =      8.000008544

  ATOM     CHARGE      SPIN    
   0 C   -0.076341    0.000000
   1 C   -0.076341    0.000000
   2 H    0.038162    0.000000
   3 H    0.038170    0.000000
   4 H    0.038162    0.000000
   5 H    0.038170    0.000000

  TOTAL  -0.000017    0.000000

-------
TIMINGS
-------

Total SCF time: 0 days 0 hours 0 min 7 sec 

Total time                  ....       7.078 sec
Sum of individual times     ....       7.008 sec  ( 99.0%)

Fock matrix formation       ....       6.517 sec  ( 92.1%)
  Split-RI-J                ....       0.410 sec  (  6.3% of F)
  Chain of spheres X        ....       4.568 sec  ( 70.1% of F)
  XC integration            ....       1.530 sec  ( 23.5% of F)
    Basis function eval.    ....       0.487 sec  ( 31.8% of XC)
    Density eval.           ....       0.357 sec  ( 23.3% of XC)
    XC-Functional eval.     ....       0.141 sec  (  9.2% of XC)
    XC-Potential eval.      ....       0.487 sec  ( 31.8% of XC)
Diagonalization             ....       0.009 sec  (  0.1%)
Density matrix formation    ....       0.000 sec  (  0.0%)
Population analysis         ....       0.071 sec  (  1.0%)
Initial guess               ....       0.062 sec  (  0.9%)
Orbital Transformation      ....       0.000 sec  (  0.0%)
Orbital Orthonormalization  ....       0.000 sec  (  0.0%)
DIIS solution               ....       0.002 sec  (  0.0%)
SOSCF solution              ....       0.002 sec  (  0.0%)
Grid generation             ....       0.344 sec  (  4.9%)

Maximum memory used throughout the entire SCF-calculation: 67.1 MB


-------------------------------------------------------------------------------
                          DFT DISPERSION CORRECTION                            
                                                                               
                              DFTD3 V3.1  Rev 1                                
                          USING Becke-Johnson damping                          
-------------------------------------------------------------------------------
The PBE0 functional is recognized
Active option DFTDOPT                   ...         4   

molecular C6(AA) [au] = 294.549980 


            DFT-D V3
 parameters
 s6 scaling factor         :     1.0000 
 a1 scaling factor         :     0.4145 
 s8 scaling factor         :     1.2177 
 a2 scaling factor         :     4.8593 
 ad hoc parameters k1-k3   :    16.0000     1.3333    -4.0000 

 Edisp/kcal,au: -1.192050188244  -0.001899652691 
 E6   /kcal   :  -0.781366860 
 E8   /kcal   :  -0.410683328 
 % E8         :  34.451848749 

-------------------------   ----------------
Dispersion correction           -0.001899653
-------------------------   ----------------


-------------------------   --------------------
FINAL SINGLE POINT ENERGY       -78.513931987215
-------------------------   --------------------


                            ***************************************
                            *     ORCA property calculations      *
                            ***************************************

                                    ---------------------
                                    Active property flags
                                    ---------------------
   (+) Dipole Moment


------------------------------------------------------------------------------
                       ORCA ELECTRIC PROPERTIES CALCULATION
------------------------------------------------------------------------------

Dipole Moment Calculation                       ... on
Quadrupole Moment Calculation                   ... off
Polarizability Calculation                      ... off
GBWName                                         ... r1_C2H4_sp_orca.gbw
Electron density                                ... r1_C2H4_sp_orca.scfp
The origin for moment calculation is the CENTER OF MASS  = ( 0.000001,  0.000001  0.000031)

-------------
DIPOLE MOMENT
-------------
                                X             Y             Z
Electronic contribution:      0.00000       0.00000      -0.00000
Nuclear contribution   :     -0.00000      -0.00000       0.00000
                        -----------------------------------------
Total Dipole Moment    :     -0.00000      -0.00000       0.00000
                        -----------------------------------------
Magnitude (a.u.)       :      0.00000
Magnitude (Debye)      :      0.00000



--------------------
Rotational spectrum 
--------------------
 
Rotational constants in cm-1:     4.821946     1.001475     0.829248 
Rotational constants in MHz : 144558.312007 30023.457518 24860.215170 

 Dipole components along the rotational axes: 
x,y,z [a.u.] :     0.000000    -0.000000     0.000000 
x,y,z [Debye]:     0.000001    -0.000001     0.000000 

 

Timings for individual modules:

Sum of individual times         ...        7.246 sec (=   0.121 min)
GTO integral calculation        ...        0.150 sec (=   0.002 min)   2.1 %
SCF iterations                  ...        7.096 sec (=   0.118 min)  97.9 %
                             ****ORCA TERMINATED NORMALLY****
TOTAL RUN TIME: 0 days 0 hours 0 minutes 7 seconds 393 msec
