
                                 *****************
                                 * O   R   C   A *
                                 *****************

                                            #,                                       
                                            ###                                      
                                            ####                                     
                                            #####                                    
                                            ######                                   
                                           ########,                                 
                                     ,,################,,,,,                         
                               ,,#################################,,                 
                          ,,##########################################,,             
                       ,#########################################, ''#####,          
                    ,#############################################,,   '####,        
                  ,##################################################,,,,####,       
                ,###########''''           ''''###############################       
              ,#####''   ,,,,##########,,,,          '''####'''          '####       
            ,##' ,,,,###########################,,,                        '##       
           ' ,,###''''                  '''############,,,                           
         ,,##''                                '''############,,,,        ,,,,,,###''
      ,#''                                            '''#######################'''  
     '                                                          ''''####''''         
             ,#######,   #######,   ,#######,      ##                                
            ,#'     '#,  ##    ##  ,#'     '#,    #''#        ######   ,####,        
            ##       ##  ##   ,#'  ##            #'  '#       #        #'  '#        
            ##       ##  #######   ##           ,######,      #####,   #    #        
            '#,     ,#'  ##    ##  '#,     ,#' ,#      #,         ##   #,  ,#        
             '#######'   ##     ##  '#######'  #'      '#     #####' # '####'        



                  #######################################################
                  #                        -***-                        #
                  #          Department of theory and spectroscopy      #
                  #    Directorship and core code : Frank Neese         #
                  #        Max Planck Institute fuer Kohlenforschung    #
                  #                Kaiser Wilhelm Platz 1               #
                  #                 D-45470 Muelheim/Ruhr               #
                  #                      Germany                        #
                  #                                                     #
                  #                  All rights reserved                #
                  #                        -***-                        #
                  #######################################################


                         Program Version 5.0.4 -  RELEASE  -


 With contributions from (in alphabetic order):
   Daniel Aravena         : Magnetic Suceptibility
   Michael Atanasov       : Ab Initio Ligand Field Theory (pilot matlab implementation)
   Alexander A. Auer      : GIAO ZORA, VPT2 properties, NMR spectrum
   Ute Becker             : Parallelization
   Giovanni Bistoni       : ED, misc. LED, open-shell LED, HFLD
   Martin Brehm           : Molecular dynamics
   Dmytro Bykov           : SCF Hessian
   Vijay G. Chilkuri      : MRCI spin determinant printing, contributions to CSF-ICE
   Dipayan Datta          : RHF DLPNO-CCSD density
   Achintya Kumar Dutta   : EOM-CC, STEOM-CC
   Dmitry Ganyushin       : Spin-Orbit,Spin-Spin,Magnetic field MRCI
   Miquel Garcia          : C-PCM and meta-GGA Hessian, CC/C-PCM, Gaussian charge scheme
   Yang Guo               : DLPNO-NEVPT2, F12-NEVPT2, CIM, IAO-localization
   Andreas Hansen         : Spin unrestricted coupled pair/coupled cluster methods
   Benjamin Helmich-Paris : MC-RPA, TRAH-SCF, COSX integrals
   Lee Huntington         : MR-EOM, pCC
   Robert Izsak           : Overlap fitted RIJCOSX, COSX-SCS-MP3, EOM
   Marcus Kettner         : VPT2
   Christian Kollmar      : KDIIS, OOCD, Brueckner-CCSD(T), CCSD density, CASPT2, CASPT2-K
   Simone Kossmann        : Meta GGA functionals, TD-DFT gradient, OOMP2, MP2 Hessian
   Martin Krupicka        : Initial AUTO-CI
   Lucas Lang             : DCDCAS
   Marvin Lechner         : AUTO-CI (C++ implementation), FIC-MRCC
   Dagmar Lenk            : GEPOL surface, SMD
   Dimitrios Liakos       : Extrapolation schemes; Compound Job, initial MDCI parallelization
   Dimitrios Manganas     : Further ROCIS development; embedding schemes
   Dimitrios Pantazis     : SARC Basis sets
   Anastasios Papadopoulos: AUTO-CI, single reference methods and gradients
   Taras Petrenko         : DFT Hessian,TD-DFT gradient, ASA, ECA, R-Raman, ABS, FL, XAS/XES, NRVS
   Peter Pinski           : DLPNO-MP2, DLPNO-MP2 Gradient
   Christoph Reimann      : Effective Core Potentials
   Marius Retegan         : Local ZFS, SOC
   Christoph Riplinger    : Optimizer, TS searches, QM/MM, DLPNO-CCSD(T), (RO)-DLPNO pert. Triples
   Tobias Risthaus        : Range-separated hybrids, TD-DFT gradient, RPA, STAB
   Michael Roemelt        : Original ROCIS implementation
   Masaaki Saitow         : Open-shell DLPNO-CCSD energy and density
   Barbara Sandhoefer     : DKH picture change effects
   Avijit Sen             : IP-ROCIS
   Kantharuban Sivalingam : CASSCF convergence, NEVPT2, FIC-MRCI
   Bernardo de Souza      : ESD, SOC TD-DFT
   Georgi Stoychev        : AutoAux, RI-MP2 NMR, DLPNO-MP2 response
   Willem Van den Heuvel  : Paramagnetic NMR
   Boris Wezisla          : Elementary symmetry handling
   Frank Wennmohs         : Technical directorship


 We gratefully acknowledge several colleagues who have allowed us to
 interface, adapt or use parts of their codes:
   Stefan Grimme, W. Hujo, H. Kruse, P. Pracht,  : VdW corrections, initial TS optimization,
                  C. Bannwarth, S. Ehlert          DFT functionals, gCP, sTDA/sTD-DF
   Ed Valeev, F. Pavosevic, A. Kumar             : LibInt (2-el integral package), F12 methods
   Garnet Chan, S. Sharma, J. Yang, R. Olivares  : DMRG
   Ulf Ekstrom                                   : XCFun DFT Library
   Mihaly Kallay                                 : mrcc  (arbitrary order and MRCC methods)
   Jiri Pittner, Ondrej Demel                    : Mk-CCSD
   Frank Weinhold                                : gennbo (NPA and NBO analysis)
   Christopher J. Cramer and Donald G. Truhlar   : smd solvation model
   Lars Goerigk                                  : TD-DFT with DH, B97 family of functionals
   V. Asgeirsson, H. Jonsson                     : NEB implementation
   FAccTs GmbH                                   : IRC, NEB, NEB-TS, DLPNO-Multilevel, CI-OPT
                                                   MM, QMMM, 2- and 3-layer-ONIOM, Crystal-QMMM,
                                                   LR-CPCM, SF, NACMEs, symmetry and pop. for TD-DFT,
                                                   nearIR, NL-DFT gradient (VV10), updates on ESD,
                                                   ML-optimized integration grids
   S Lehtola, MJT Oliveira, MAL Marques          : LibXC Library
   Liviu Ungur et al                             : ANISO software


 Your calculation uses the libint2 library for the computation of 2-el integrals
 For citations please refer to: http://libint.valeyev.net

 Your ORCA version has been built with support for libXC version: 5.1.0
 For citations please refer to: https://tddft.org/programs/libxc/

 This ORCA versions uses:
   CBLAS   interface :  Fast vector & matrix operations
   LAPACKE interface :  Fast linear algebra routines
   SCALAPACK package :  Parallel linear algebra routines
   Shared memory     :  Shared parallel matrices
   BLAS/LAPACK       :  OpenBLAS 0.3.15  USE64BITINT DYNAMIC_ARCH NO_AFFINITY Haswell SINGLE_THREADED
        Core in use  :  Haswell
   Copyright (c) 2011-2014, The OpenBLAS Project


Your calculation utilizes the atom-pairwise dispersion correction
with the Becke-Johnson damping scheme (D3BJ)
Cite in your paper:
S.Grimme, S.Ehrlich, L.Goerigk, J Comput Chem, (2011), 32, 1456–1465 
S.Grimme, J.Antony, S.Ehrlich and H.Krieg, J.Chem.Phys., 132, (2010), 154104 
   

================================================================================

----- Orbital basis set information -----
Your calculation utilizes the basis: def2-TZVP
   F. Weigend and R. Ahlrichs, Phys. Chem. Chem. Phys. 7, 3297 (2005).

----- AuxJ basis set information -----
Your calculation utilizes the auxiliary basis: def2/J
   F. Weigend, Phys. Chem. Chem. Phys. 8, 1057 (2006).

================================================================================
                                        WARNINGS
                       Please study these warnings very carefully!
================================================================================


INFO   : the flag for use of the SHARK integral package has been found!

================================================================================
                                       INPUT FILE
================================================================================
NAME = TS_5ZPuRE_ll_ad_2-3_4-5_sp_orca.inp
|  1> ! SP PBE0 RIJCOSX D3BJ def2-TZVP def2/J 
|  2> %geom
|  3> modify_internal
|  4> { B 2 3 A } end
|  5> end
|  6> %geom
|  7> modify_internal
|  8> { B 4 5 A } end
|  9> end
| 10> %output 
| 11> xyzfile=True 
| 12> end 
| 13> %scf 
| 14> maxiter 250 
| 15> end
| 16> %output
| 17> Print[P_Hirshfeld] = 1
| 18> end
| 19> % maxcore
| 20> 4000
| 21> *xyz 0 1
| 22> C   -0.84961654  -1.37818011   0.18263566 
| 23> C    0.53380910  -1.53894497  -0.04153931 
| 24> C    1.25934195  -0.64381662  -0.79244594 
| 25> C    0.91383138   1.30887913   0.37281319 
| 26> C   -0.43651238   1.46416032   0.59318580 
| 27> C   -1.55271660  -0.31611608  -0.33644612 
| 28> H   -1.31921900  -1.99602103   0.95488939 
| 29> H    1.07019777  -2.27360921   0.56778513 
| 30> H    0.79043804  -0.08773980  -1.60535976 
| 31> H    2.34783675  -0.72733364  -0.85250153 
| 32> H    1.40890069   1.86525662  -0.42689525 
| 33> H    1.56511142   0.95056608   1.17149514 
| 34> H   -1.02164898   2.14526588  -0.02963802 
| 35> H   -0.86629244   1.22990476   1.56836349 
| 36> H   -2.59540904  -0.15191248  -0.05149396 
| 37> H   -1.24799212   0.14955113  -1.27460791 
| 38> *
| 39> 
| 40>                          ****END OF INPUT****
================================================================================

                       ****************************
                       * Single Point Calculation *
                       ****************************

---------------------------------
CARTESIAN COORDINATES (ANGSTROEM)
---------------------------------
  C     -0.849617   -1.378180    0.182636
  C      0.533809   -1.538945   -0.041539
  C      1.259342   -0.643817   -0.792446
  C      0.913831    1.308879    0.372813
  C     -0.436512    1.464160    0.593186
  C     -1.552717   -0.316116   -0.336446
  H     -1.319219   -1.996021    0.954889
  H      1.070198   -2.273609    0.567785
  H      0.790438   -0.087740   -1.605360
  H      2.347837   -0.727334   -0.852502
  H      1.408901    1.865257   -0.426895
  H      1.565111    0.950566    1.171495
  H     -1.021649    2.145266   -0.029638
  H     -0.866292    1.229905    1.568363
  H     -2.595409   -0.151912   -0.051494
  H     -1.247992    0.149551   -1.274608

----------------------------
CARTESIAN COORDINATES (A.U.)
----------------------------
  NO LB      ZA    FRAG     MASS         X           Y           Z
   0 C     6.0000    0    12.011   -1.605543   -2.604383    0.345131
   1 C     6.0000    0    12.011    1.008753   -2.908185   -0.078498
   2 C     6.0000    0    12.011    2.379811   -1.216637   -1.497506
   3 C     6.0000    0    12.011    1.726891    2.473423    0.704515
   4 C     6.0000    0    12.011   -0.824889    2.766862    1.120959
   5 C     6.0000    0    12.011   -2.934209   -0.597373   -0.635791
   6 H     1.0000    0     1.008   -2.492963   -3.771933    1.804479
   7 H     1.0000    0     1.008    2.022381   -4.296499    1.072958
   8 H     1.0000    0     1.008    1.493711   -0.165804   -3.033690
   9 H     1.0000    0     1.008    4.436768   -1.374461   -1.610994
  10 H     1.0000    0     1.008    2.662436    3.524824   -0.806715
  11 H     1.0000    0     1.008    2.957632    1.796310    2.213805
  12 H     1.0000    0     1.008   -1.930637    4.053965   -0.056008
  13 H     1.0000    0     1.008   -1.637055    2.324183    2.963777
  14 H     1.0000    0     1.008   -4.904612   -0.287073   -0.097309
  15 H     1.0000    0     1.008   -2.358363    0.282611   -2.408660

--------------------------------
INTERNAL COORDINATES (ANGSTROEM)
--------------------------------
 C      0   0   0     0.000000000000     0.00000000     0.00000000
 C      1   0   0     1.410661638663     0.00000000     0.00000000
 C      2   1   0     1.375323033466   122.00158401     0.00000000
 C      3   2   1     2.300049366013   101.34423476    58.95282126
 C      4   3   2     1.376991142084   108.91284797   309.90841494
 C      1   2   3     1.375418333642   121.96129716   359.96289711
 H      1   2   3     1.094819481176   117.93244707   192.85720317
 H      2   1   3     1.094861006713   117.93607385   167.13599369
 H      3   2   1     1.090835086208   120.79042734   330.25356499
 H      3   2   1     1.093344728870   120.36256039   172.77241871
 H      4   3   2     1.092786860321    89.62425192   187.86950663
 H      4   3   2     1.091075977904    90.13632409    72.24533793
 H      5   4   3     1.092794187064   120.27566603   258.89045920
 H      5   4   3     1.091126983645   120.33706686   101.72890974
 H      6   1   2     1.093328898445   120.33961420   187.21202145
 H      6   1   2     1.090802687655   120.75893878    29.79038807

---------------------------
INTERNAL COORDINATES (A.U.)
---------------------------
 C      0   0   0     0.000000000000     0.00000000     0.00000000
 C      1   0   0     2.665764164701     0.00000000     0.00000000
 C      2   1   0     2.598983878924   122.00158401     0.00000000
 C      3   2   1     4.346463396264   101.34423476    58.95282126
 C      4   3   2     2.602136147374   108.91284797   309.90841494
 C      1   2   3     2.599163970159   121.96129716   359.96289711
 H      1   2   3     2.068908985505   117.93244707   192.85720317
 H      2   1   3     2.068987457397   117.93607385   167.13599369
 H      3   2   1     2.061379570205   120.79042734   330.25356499
 H      3   2   1     2.066122107530   120.36256039   172.77241871
 H      4   3   2     2.065067888754    89.62425192   187.86950663
 H      4   3   2     2.061834789538    90.13632409    72.24533793
 H      5   4   3     2.065081734293   120.27566603   258.89045920
 H      5   4   3     2.061931176421   120.33706686   101.72890974
 H      6   1   2     2.066092192363   120.33961420   187.21202145
 H      6   1   2     2.061318345814   120.75893878    29.79038807

---------------------
BASIS SET INFORMATION
---------------------
There are 2 groups of distinct atoms

 Group   1 Type C   : 11s6p2d1f contracted to 5s3p2d1f pattern {62111/411/11/1}
 Group   2 Type H   : 5s1p contracted to 3s1p pattern {311/1}

Atom   0C    basis set group =>   1
Atom   1C    basis set group =>   1
Atom   2C    basis set group =>   1
Atom   3C    basis set group =>   1
Atom   4C    basis set group =>   1
Atom   5C    basis set group =>   1
Atom   6H    basis set group =>   2
Atom   7H    basis set group =>   2
Atom   8H    basis set group =>   2
Atom   9H    basis set group =>   2
Atom  10H    basis set group =>   2
Atom  11H    basis set group =>   2
Atom  12H    basis set group =>   2
Atom  13H    basis set group =>   2
Atom  14H    basis set group =>   2
Atom  15H    basis set group =>   2
---------------------------------
AUXILIARY/J BASIS SET INFORMATION
---------------------------------
There are 2 groups of distinct atoms

 Group   1 Type C   : 12s5p4d2f1g contracted to 6s4p3d1f1g pattern {711111/2111/211/2/1}
 Group   2 Type H   : 5s2p1d contracted to 3s1p1d pattern {311/2/1}

Atom   0C    basis set group =>   1
Atom   1C    basis set group =>   1
Atom   2C    basis set group =>   1
Atom   3C    basis set group =>   1
Atom   4C    basis set group =>   1
Atom   5C    basis set group =>   1
Atom   6H    basis set group =>   2
Atom   7H    basis set group =>   2
Atom   8H    basis set group =>   2
Atom   9H    basis set group =>   2
Atom  10H    basis set group =>   2
Atom  11H    basis set group =>   2
Atom  12H    basis set group =>   2
Atom  13H    basis set group =>   2
Atom  14H    basis set group =>   2
Atom  15H    basis set group =>   2
------------------------------------------------------------------------------
                           ORCA GTO INTEGRAL CALCULATION
                           -- RI-GTO INTEGRALS CHOSEN --
------------------------------------------------------------------------------
------------------------------------------------------------------------------
                   ___                                                        
                  /   \      - P O W E R E D   B Y -                         
                 /     \                                                     
                 |  |  |   _    _      __       _____    __    __             
                 |  |  |  | |  | |    /  \     |  _  \  |  |  /  |          
                  \  \/   | |  | |   /    \    | | | |  |  | /  /          
                 / \  \   | |__| |  /  /\  \   | |_| |  |  |/  /          
                |  |  |   |  __  | /  /__\  \  |    /   |      \           
                |  |  |   | |  | | |   __   |  |    \   |  |\   \          
                \     /   | |  | | |  |  |  |  | |\  \  |  | \   \       
                 \___/    |_|  |_| |__|  |__|  |_| \__\ |__|  \__/        
                                                                              
                      - O R C A' S   B I G   F R I E N D -                    
                                      &                                       
                       - I N T E G R A L  F E E D E R -                       
                                                                              
 v1 FN, 2020, v2 2021                                                         
------------------------------------------------------------------------------


Reading SHARK input file TS_5ZPuRE_ll_ad_2-3_4-5_sp_orca.SHARKINP.tmp ... ok
----------------------
SHARK INTEGRAL PACKAGE
----------------------

Number of atoms                             ...     16
Number of basis functions                   ...    246
Number of shells                            ...    106
Maximum angular momentum                    ...      3
Integral batch strategy                     ... SHARK/LIBINT Hybrid
RI-J (if used) integral strategy            ... SPLIT-RIJ (Revised 2003 algorithm where possible)
Printlevel                                  ...      1
Contraction scheme used                     ... SEGMENTED contraction
Coulomb Range Separation                    ... NOT USED
Exchange Range Separation                   ... NOT USED
Finite Nucleus Model                        ... NOT USED
Auxiliary Coulomb fitting basis             ... AVAILABLE
   # of basis functions in Aux-J            ...    404
   # of shells in Aux-J                     ...    140
   Maximum angular momentum in Aux-J        ...      4
Auxiliary J/K fitting basis                 ... NOT available
Auxiliary Correlation fitting basis         ... NOT available
Auxiliary 'external' fitting basis          ... NOT available
Integral threshold                          ...     1.000000e-10
Primitive cut-off                           ...     1.000000e-11
Primitive pair pre-selection threshold      ...     1.000000e-11

Calculating pre-screening integrals         ... done (  0.1 sec) Dimension = 106
Organizing shell pair data                  ... done (  0.1 sec)
Shell pair information
Total number of shell pairs                 ...      5671
Shell pairs after pre-screening             ...      5438
Total number of primitive shell pairs       ...     16452
Primitive shell pairs kept                  ...     12299
          la=0 lb=0:   1701 shell pairs
          la=1 lb=0:   1606 shell pairs
          la=1 lb=1:    402 shell pairs
          la=2 lb=0:    694 shell pairs
          la=2 lb=1:    336 shell pairs
          la=2 lb=2:     78 shell pairs
          la=3 lb=0:    360 shell pairs
          la=3 lb=1:    168 shell pairs
          la=3 lb=2:     72 shell pairs
          la=3 lb=3:     21 shell pairs

Calculating one electron integrals          ... done (  0.0 sec)
Calculating RI/J V-Matrix + Cholesky decomp.... done (  0.0 sec)
Calculating Nuclear repulsion               ... done (  0.0 sec) ENN=    223.828090085057 Eh

SHARK setup successfully completed in   0.3 seconds

Maximum memory used throughout the entire GTOINT-calculation: 66.2 MB
-------------------------------------------------------------------------------
                                 ORCA SCF
-------------------------------------------------------------------------------

------------
SCF SETTINGS
------------
Hamiltonian:
 Density Functional     Method          .... DFT(GTOs)
 Exchange Functional    Exchange        .... PBE
   PBE kappa parameter   XKappa         ....  0.804000
   PBE mue parameter    XMuePBE         ....  0.219520
 Correlation Functional Correlation     .... PBE
   PBE beta parameter  CBetaPBE         ....  0.066725
 LDA part of GGA corr.  LDAOpt          .... PW91-LDA
 Gradients option       PostSCFGGA      .... off
 Hybrid DFT is turned on
   Fraction HF Exchange ScalHFX         ....  0.250000
   Scaling of DF-GGA-X  ScalDFX         ....  0.750000
   Scaling of DF-GGA-C  ScalDFC         ....  1.000000
   Scaling of DF-LDA-C  ScalLDAC        ....  1.000000
   Perturbative correction              ....  0.000000
   Density functional embedding theory  .... OFF
   NL short-range parameter             ....  6.900000
 RI-approximation to the Coulomb term is turned on
   Number of AuxJ basis functions       .... 404
   RIJ-COSX (HFX calculated with COS-X)).... on


General Settings:
 Integral files         IntName         .... TS_5ZPuRE_ll_ad_2-3_4-5_sp_orca
 Hartree-Fock type      HFTyp           .... RHF
 Total Charge           Charge          ....    0
 Multiplicity           Mult            ....    1
 Number of Electrons    NEL             ....   46
 Basis Dimension        Dim             ....  246
 Nuclear Repulsion      ENuc            ....    223.8280900851 Eh

Convergence Acceleration:
 DIIS                   CNVDIIS         .... on
   Start iteration      DIISMaxIt       ....    12
   Startup error        DIISStart       ....  0.200000
   # of expansion vecs  DIISMaxEq       ....     5
   Bias factor          DIISBfac        ....   1.050
   Max. coefficient     DIISMaxC        ....  10.000
 Trust-Rad. Augm. Hess. CNVTRAH         .... auto
   Auto Start mean grad. ratio tolernc. ....  1.125000
   Auto Start start iteration           ....    20
   Auto Start num. interpolation iter.  ....    10
   Max. Number of Micro iterations      ....    16
   Max. Number of Macro iterations      .... Maxiter - #DIIS iter
   Number of Davidson start vectors     ....     2
   Converg. threshold I  (grad. norm)   ....   5.000e-05
   Converg. threshold II (energy diff.) ....   1.000e-06
   Grad. Scal. Fac. for Micro threshold ....   0.100
   Minimum threshold for Micro iter.    ....   0.010
   NR start threshold (gradient norm)   ....   0.001
   Initial trust radius                 ....   0.400
   Minimum AH scaling param. (alpha)    ....   1.000
   Maximum AH scaling param. (alpha)    .... 1000.000
   Orbital update algorithm             .... Taylor
   White noise on init. David. guess    .... on
   Maximum white noise                  ....   0.010
   Quad. conv. algorithm                .... NR
 SOSCF                  CNVSOSCF        .... on
   Start iteration      SOSCFMaxIt      ....   150
   Startup grad/error   SOSCFStart      ....  0.003300
 Level Shifting         CNVShift        .... on
   Level shift para.    LevelShift      ....    0.2500
   Turn off err/grad.   ShiftErr        ....    0.0010
 Zerner damping         CNVZerner       .... off
 Static damping         CNVDamp         .... on
   Fraction old density DampFac         ....    0.7000
   Max. Damping (<1)    DampMax         ....    0.9800
   Min. Damping (>=0)   DampMin         ....    0.0000
   Turn off err/grad.   DampErr         ....    0.1000
 Fernandez-Rico         CNVRico         .... off

SCF Procedure:
 Maximum # iterations   MaxIter         ....   250
 SCF integral mode      SCFMode         .... Direct
   Integral package                     .... SHARK and LIBINT hybrid scheme
 Reset frequency        DirectResetFreq ....    20
 Integral Threshold     Thresh          ....  1.000e-10 Eh
 Primitive CutOff       TCut            ....  1.000e-11 Eh

Convergence Tolerance:
 Convergence Check Mode ConvCheckMode   .... Total+1el-Energy
 Convergence forced     ConvForced      .... 0
 Energy Change          TolE            ....  1.000e-06 Eh
 1-El. energy change                    ....  1.000e-03 Eh
 Orbital Gradient       TolG            ....  5.000e-05
 Orbital Rotation angle TolX            ....  5.000e-05
 DIIS Error             TolErr          ....  1.000e-06


Diagonalization of the overlap matrix:
Smallest eigenvalue                        ... 6.964e-05
Time for diagonalization                   ...    0.009 sec
Threshold for overlap eigenvalues          ... 1.000e-08
Number of eigenvalues below threshold      ... 0
Time for construction of square roots      ...    0.003 sec
Total time needed                          ...    0.012 sec

Time for model grid setup =    0.188 sec

------------------------------
INITIAL GUESS: MODEL POTENTIAL
------------------------------
Loading Hartree-Fock densities                     ... done
Calculating cut-offs                               ... done
Initializing the effective Hamiltonian             ... done
Setting up the integral package (SHARK)            ... done
Starting the Coulomb interaction                   ... done (   0.3 sec)
Reading the grid                                   ... done
Mapping shells                                     ... done
Starting the XC term evaluation                    ... done (   0.3 sec)
  promolecular density results
     # of electrons  =     45.991662946
     EX              =    -33.525554913
     EC              =     -1.466206026
     EX+EC           =    -34.991760938
Transforming the Hamiltonian                       ... done (   0.0 sec)
Diagonalizing the Hamiltonian                      ... done (   0.0 sec)
Back transforming the eigenvectors                 ... done (   0.0 sec)
Now organizing SCF variables                       ... done
                      ------------------
                      INITIAL GUESS DONE (   0.8 sec)
                      ------------------
-------------------
DFT GRID GENERATION
-------------------

General Integration Accuracy     IntAcc      ... 4.388
Radial Grid Type                 RadialGrid  ... OptM3 with GC (2021)
Angular Grid (max. ang.)         AngularGrid ... 4 (Lebedev-302)
Angular grid pruning method      GridPruning ... 4 (adaptive)
Weight generation scheme         WeightScheme... Becke
Basis function cutoff            BFCut       ... 1.0000e-10
Integration weight cutoff        WCut        ... 1.0000e-14
Angular grids for H and He will be reduced by one unit
Partially contracted basis set               ... off
Rotationally invariant grid construction     ... off

Total number of grid points                  ...    68298
Total number of batches                      ...     1076
Average number of points per batch           ...       63
Average number of grid points per atom       ...     4269
Time for grid setup =    0.759 sec

--------------------
COSX GRID GENERATION
--------------------

GRIDX 1
-------
General Integration Accuracy     IntAcc      ... 3.816
Radial Grid Type                 RadialGrid  ... OptM3 with GC (2021)
Angular Grid (max. ang.)         AngularGrid ... 1 (Lebedev-50)
Angular grid pruning method      GridPruning ... 4 (adaptive)
Weight generation scheme         WeightScheme... Becke
Basis function cutoff            BFCut       ... 1.0000e-10
Integration weight cutoff        WCut        ... 1.0000e-14
Angular grids for H and He will be reduced by one unit
Partially contracted basis set               ... on
Rotationally invariant grid construction     ... off

Total number of grid points                  ...     8758
Total number of batches                      ...      145
Average number of points per batch           ...       60
Average number of grid points per atom       ...      547
UseSFitting                                  ... on

GRIDX 2
-------
General Integration Accuracy     IntAcc      ... 4.020
Radial Grid Type                 RadialGrid  ... OptM3 with GC (2021)
Angular Grid (max. ang.)         AngularGrid ... 2 (Lebedev-110)
Angular grid pruning method      GridPruning ... 4 (adaptive)
Weight generation scheme         WeightScheme... Becke
Basis function cutoff            BFCut       ... 1.0000e-10
Integration weight cutoff        WCut        ... 1.0000e-14
Angular grids for H and He will be reduced by one unit
Partially contracted basis set               ... on
Rotationally invariant grid construction     ... off

Total number of grid points                  ...    18360
Total number of batches                      ...      296
Average number of points per batch           ...       62
Average number of grid points per atom       ...     1148
UseSFitting                                  ... on

GRIDX 3
-------
General Integration Accuracy     IntAcc      ... 4.338
Radial Grid Type                 RadialGrid  ... OptM3 with GC (2021)
Angular Grid (max. ang.)         AngularGrid ... 3 (Lebedev-194)
Angular grid pruning method      GridPruning ... 4 (adaptive)
Weight generation scheme         WeightScheme... Becke
Basis function cutoff            BFCut       ... 1.0000e-10
Integration weight cutoff        WCut        ... 1.0000e-14
Angular grids for H and He will be reduced by one unit
Partially contracted basis set               ... on
Rotationally invariant grid construction     ... off

Total number of grid points                  ...    40188
Total number of batches                      ...      637
Average number of points per batch           ...       63
Average number of grid points per atom       ...     2512
UseSFitting                                  ... on

Time for X-Grid setup             =    1.013 sec

--------------
SCF ITERATIONS
--------------
ITER       Energy         Delta-E        Max-DP      RMS-DP      [F,P]     Damp
               ***  Starting incremental Fock matrix formation  ***
  0   -234.1415050941   0.000000000000 0.02767115  0.00088597  0.1464893 0.7000
  1   -234.2261009815  -0.084595887374 0.01718098  0.00071059  0.0803956 0.7000
                               ***Turning on DIIS***
  2   -234.2626967050  -0.036595723549 0.02777057  0.00124139  0.0338485 0.0000
  3   -234.3137129929  -0.051016287863 0.01192148  0.00057993  0.0409037 0.0000
  4   -234.3282347072  -0.014521714343 0.00536848  0.00020090  0.0076069 0.0000
                      *** Initiating the SOSCF procedure ***
                           *** Shutting down DIIS ***
                      *** Re-Reading the Fockian *** 
                      *** Removing any level shift *** 
ITER      Energy       Delta-E        Grad      Rot      Max-DP    RMS-DP
  5   -234.32882269  -0.0005879851  0.000614  0.000614  0.001770  0.000081
               *** Restarting incremental Fock matrix formation ***
  6   -234.32885215  -0.0000294612  0.000193  0.000484  0.001229  0.000050
  7   -234.32885362  -0.0000014691  0.000130  0.000197  0.000251  0.000009
                 **** Energy Check signals convergence ****
              ***Rediagonalizing the Fockian in SOSCF/NRSCF***

               *****************************************************
               *                     SUCCESS                       *
               *           SCF CONVERGED AFTER   8 CYCLES          *
               *****************************************************

Old exchange energy                            =     -8.622026413 Eh
New exchange energy                            =     -8.622031730 Eh
Exchange energy change after final integration =     -0.000005317 Eh
Total energy after final integration           =   -234.328859705 Eh
Final COS-X integration done in                =    16.072 sec

----------------
TOTAL SCF ENERGY
----------------

Total Energy       :         -234.32885970 Eh           -6376.41244 eV

Components:
Nuclear Repulsion  :          223.82809009 Eh            6090.67197 eV
Electronic Energy  :         -458.15694979 Eh          -12467.08442 eV
One Electron Energy:         -757.51648585 Eh          -20613.07153 eV
Two Electron Energy:          299.35953606 Eh            8145.98711 eV
Max COSX asymmetry :            0.00000077 Eh               0.00002 eV

Virial components:
Potential Energy   :         -467.24222452 Eh          -12714.30731 eV
Kinetic Energy     :          232.91336482 Eh            6337.89487 eV
Virial Ratio       :            2.00607735


DFT components:
N(Alpha)           :       23.000023564429 electrons
N(Beta)            :       23.000023564429 electrons
N(Total)           :       46.000047128858 electrons
E(X)               :      -25.779213839894 Eh       
E(C)               :       -1.475549203266 Eh       
E(XC)              :      -27.254763043160 Eh       
DFET-embed. en.    :        0.000000000000 Eh       

---------------
SCF CONVERGENCE
---------------

  Last Energy change         ...   -7.6533e-07  Tolerance :   1.0000e-06
  Last MAX-Density change    ...    1.4433e-15  Tolerance :   1.0000e-05
  Last RMS-Density change    ...    1.7215e-17  Tolerance :   1.0000e-06
  Last Orbital Gradient      ...    5.0179e-05  Tolerance :   5.0000e-05
  Last Orbital Rotation      ...    1.0015e-04  Tolerance :   5.0000e-05

             **** THE GBW FILE WAS UPDATED (TS_5ZPuRE_ll_ad_2-3_4-5_sp_orca.gbw) ****
             **** DENSITY TS_5ZPuRE_ll_ad_2-3_4-5_sp_orca.scfp WAS UPDATED ****
             **** ENERGY FILE WAS UPDATED (TS_5ZPuRE_ll_ad_2-3_4-5_sp_orca.en.tmp) ****
             **** THE GBW FILE WAS UPDATED (TS_5ZPuRE_ll_ad_2-3_4-5_sp_orca.gbw) ****
             **** DENSITY TS_5ZPuRE_ll_ad_2-3_4-5_sp_orca.scfp WAS UPDATED ****
----------------
ORBITAL ENERGIES
----------------

  NO   OCC          E(Eh)            E(eV) 
   0   2.0000     -10.229309      -278.3536 
   1   2.0000     -10.229244      -278.3519 
   2   2.0000     -10.223303      -278.1902 
   3   2.0000     -10.222628      -278.1718 
   4   2.0000     -10.218693      -278.0648 
   5   2.0000     -10.218170      -278.0505 
   6   2.0000      -0.834053       -22.6957 
   7   2.0000      -0.769769       -20.9465 
   8   2.0000      -0.740080       -20.1386 
   9   2.0000      -0.640649       -17.4330 
  10   2.0000      -0.596004       -16.2181 
  11   2.0000      -0.533859       -14.5270 
  12   2.0000      -0.507220       -13.8021 
  13   2.0000      -0.478400       -13.0179 
  14   2.0000      -0.443371       -12.0647 
  15   2.0000      -0.421096       -11.4586 
  16   2.0000      -0.417418       -11.3585 
  17   2.0000      -0.376173       -10.2362 
  18   2.0000      -0.366913        -9.9842 
  19   2.0000      -0.359727        -9.7887 
  20   2.0000      -0.351163        -9.5556 
  21   2.0000      -0.241820        -6.5803 
  22   2.0000      -0.241580        -6.5737 
  23   0.0000      -0.023867        -0.6494 
  24   0.0000       0.008562         0.2330 
  25   0.0000       0.051843         1.4107 
  26   0.0000       0.066709         1.8152 
  27   0.0000       0.080670         2.1951 
  28   0.0000       0.099087         2.6963 
  29   0.0000       0.099468         2.7067 
  30   0.0000       0.104679         2.8485 
  31   0.0000       0.118225         3.2171 
  32   0.0000       0.128666         3.5012 
  33   0.0000       0.141227         3.8430 
  34   0.0000       0.160094         4.3564 
  35   0.0000       0.195341         5.3155 
  36   0.0000       0.198306         5.3962 
  37   0.0000       0.199200         5.4205 
  38   0.0000       0.215729         5.8703 
  39   0.0000       0.235139         6.3985 
  40   0.0000       0.241049         6.5593 
  41   0.0000       0.246879         6.7179 
  42   0.0000       0.248113         6.7515 
  43   0.0000       0.253565         6.8999 
  44   0.0000       0.272206         7.4071 
  45   0.0000       0.310978         8.4621 
  46   0.0000       0.323031         8.7901 
  47   0.0000       0.327444         8.9102 
  48   0.0000       0.327802         8.9199 
  49   0.0000       0.336374         9.1532 
  50   0.0000       0.368987        10.0407 
  51   0.0000       0.399317        10.8660 
  52   0.0000       0.405639        11.0380 
  53   0.0000       0.422177        11.4880 
  54   0.0000       0.433686        11.8012 
  55   0.0000       0.434217        11.8157 
  56   0.0000       0.437957        11.9174 
  57   0.0000       0.445735        12.1291 
  58   0.0000       0.447230        12.1698 
  59   0.0000       0.468073        12.7369 
  60   0.0000       0.486308        13.2331 
  61   0.0000       0.495712        13.4890 
  62   0.0000       0.499933        13.6039 
  63   0.0000       0.511691        13.9238 
  64   0.0000       0.534195        14.5362 
  65   0.0000       0.536274        14.5928 
  66   0.0000       0.544581        14.8188 
  67   0.0000       0.551927        15.0187 
  68   0.0000       0.567820        15.4512 
  69   0.0000       0.590295        16.0627 
  70   0.0000       0.609082        16.5740 
  71   0.0000       0.626836        17.0571 
  72   0.0000       0.654690        17.8150 
  73   0.0000       0.704219        19.1628 
  74   0.0000       0.741533        20.1781 
  75   0.0000       0.746702        20.3188 
  76   0.0000       0.779461        21.2102 
  77   0.0000       0.802817        21.8458 
  78   0.0000       0.853132        23.2149 
  79   0.0000       0.871700        23.7202 
  80   0.0000       0.893960        24.3259 
  81   0.0000       0.896755        24.4020 
  82   0.0000       0.910054        24.7638 
  83   0.0000       0.920521        25.0486 
  84   0.0000       0.981934        26.7198 
  85   0.0000       0.983377        26.7590 
  86   0.0000       0.990895        26.9636 
  87   0.0000       1.020327        27.7645 
  88   0.0000       1.046317        28.4717 
  89   0.0000       1.058939        28.8152 
  90   0.0000       1.071746        29.1637 
  91   0.0000       1.097853        29.8741 
  92   0.0000       1.133948        30.8563 
  93   0.0000       1.146568        31.1997 
  94   0.0000       1.165054        31.7027 
  95   0.0000       1.193128        32.4667 
  96   0.0000       1.202671        32.7263 
  97   0.0000       1.233075        33.5537 
  98   0.0000       1.245193        33.8834 
  99   0.0000       1.266751        34.4701 
 100   0.0000       1.296551        35.2809 
 101   0.0000       1.326700        36.1013 
 102   0.0000       1.374872        37.4122 
 103   0.0000       1.402182        38.1553 
 104   0.0000       1.436838        39.0983 
 105   0.0000       1.443294        39.2740 
 106   0.0000       1.489181        40.5227 
 107   0.0000       1.507687        41.0263 
 108   0.0000       1.520242        41.3679 
 109   0.0000       1.548681        42.1418 
 110   0.0000       1.549135        42.1541 
 111   0.0000       1.579493        42.9802 
 112   0.0000       1.601733        43.5854 
 113   0.0000       1.629941        44.3529 
 114   0.0000       1.639916        44.6244 
 115   0.0000       1.649068        44.8734 
 116   0.0000       1.655737        45.0549 
 117   0.0000       1.675732        45.5990 
 118   0.0000       1.682132        45.7731 
 119   0.0000       1.693944        46.0946 
 120   0.0000       1.748996        47.5926 
 121   0.0000       1.765533        48.0426 
 122   0.0000       1.765602        48.0445 
 123   0.0000       1.799144        48.9572 
 124   0.0000       1.803877        49.0860 
 125   0.0000       1.823718        49.6259 
 126   0.0000       1.856339        50.5135 
 127   0.0000       1.871356        50.9222 
 128   0.0000       1.900317        51.7103 
 129   0.0000       1.972679        53.6793 
 130   0.0000       1.980570        53.8940 
 131   0.0000       2.019172        54.9445 
 132   0.0000       2.023097        55.0513 
 133   0.0000       2.080342        56.6090 
 134   0.0000       2.086970        56.7893 
 135   0.0000       2.127502        57.8923 
 136   0.0000       2.161944        58.8295 
 137   0.0000       2.214197        60.2514 
 138   0.0000       2.232185        60.7409 
 139   0.0000       2.241160        60.9851 
 140   0.0000       2.286796        62.2269 
 141   0.0000       2.310216        62.8642 
 142   0.0000       2.318397        63.0868 
 143   0.0000       2.353808        64.0504 
 144   0.0000       2.372451        64.5577 
 145   0.0000       2.405100        65.4461 
 146   0.0000       2.450796        66.6895 
 147   0.0000       2.469997        67.2120 
 148   0.0000       2.471964        67.2656 
 149   0.0000       2.507996        68.2460 
 150   0.0000       2.515128        68.4401 
 151   0.0000       2.542618        69.1882 
 152   0.0000       2.547787        69.3288 
 153   0.0000       2.591981        70.5314 
 154   0.0000       2.593758        70.5797 
 155   0.0000       2.611188        71.0540 
 156   0.0000       2.644037        71.9479 
 157   0.0000       2.646723        72.0210 
 158   0.0000       2.661062        72.4112 
 159   0.0000       2.661491        72.4228 
 160   0.0000       2.706715        73.6535 
 161   0.0000       2.721185        74.0472 
 162   0.0000       2.722246        74.0761 
 163   0.0000       2.742279        74.6212 
 164   0.0000       2.778564        75.6086 
 165   0.0000       2.819950        76.7347 
 166   0.0000       2.834845        77.1401 
 167   0.0000       2.848680        77.5165 
 168   0.0000       2.855138        77.6923 
 169   0.0000       2.868287        78.0501 
 170   0.0000       2.889787        78.6351 
 171   0.0000       2.918205        79.4084 
 172   0.0000       2.922072        79.5136 
 173   0.0000       2.960666        80.5638 
 174   0.0000       2.997561        81.5678 
 175   0.0000       3.000230        81.6404 
 176   0.0000       3.023879        82.2839 
 177   0.0000       3.036791        82.6353 
 178   0.0000       3.065732        83.4228 
 179   0.0000       3.090836        84.1059 
 180   0.0000       3.166179        86.1561 
 181   0.0000       3.166646        86.1688 
 182   0.0000       3.186987        86.7223 
 183   0.0000       3.207540        87.2816 
 184   0.0000       3.216676        87.5302 
 185   0.0000       3.222237        87.6815 
 186   0.0000       3.232721        87.9668 
 187   0.0000       3.255277        88.5806 
 188   0.0000       3.265107        88.8481 
 189   0.0000       3.271446        89.0206 
 190   0.0000       3.310053        90.0711 
 191   0.0000       3.313288        90.1592 
 192   0.0000       3.336188        90.7823 
 193   0.0000       3.353056        91.2413 
 194   0.0000       3.367106        91.6236 
 195   0.0000       3.392322        92.3098 
 196   0.0000       3.421453        93.1025 
 197   0.0000       3.444348        93.7255 
 198   0.0000       3.454151        93.9922 
 199   0.0000       3.489592        94.9566 
 200   0.0000       3.495027        95.1045 
 201   0.0000       3.510178        95.5168 
 202   0.0000       3.540784        96.3496 
 203   0.0000       3.549833        96.5959 
 204   0.0000       3.559476        96.8583 
 205   0.0000       3.585051        97.5542 
 206   0.0000       3.630825        98.7998 
 207   0.0000       3.655199        99.4630 
 208   0.0000       3.664152        99.7067 
 209   0.0000       3.764504       102.4374 
 210   0.0000       3.807373       103.6039 
 211   0.0000       3.842576       104.5618 
 212   0.0000       3.910513       106.4105 
 213   0.0000       3.970343       108.0385 
 214   0.0000       3.975382       108.1756 
 215   0.0000       4.023781       109.4926 
 216   0.0000       4.046469       110.1100 
 217   0.0000       4.085968       111.1848 
 218   0.0000       4.163395       113.2918 
 219   0.0000       4.174708       113.5996 
 220   0.0000       4.182589       113.8140 
 221   0.0000       4.208355       114.5152 
 222   0.0000       4.229634       115.0942 
 223   0.0000       4.248976       115.6205 
 224   0.0000       4.288370       116.6925 
 225   0.0000       4.353033       118.4520 
 226   0.0000       4.388631       119.4207 
 227   0.0000       4.483811       122.0107 
 228   0.0000       4.506658       122.6324 
 229   0.0000       4.557088       124.0047 
 230   0.0000       4.578778       124.5949 
 231   0.0000       4.617383       125.6454 
 232   0.0000       4.714539       128.2891 
 233   0.0000       4.779086       130.0455 
 234   0.0000       4.822278       131.2209 
 235   0.0000       4.842795       131.7791 
 236   0.0000       4.930707       134.1714 
 237   0.0000       4.966271       135.1391 
 238   0.0000       5.143926       139.9733 
 239   0.0000       5.177469       140.8861 
 240   0.0000      22.191665       603.8659 
 241   0.0000      22.248214       605.4047 
 242   0.0000      22.454880       611.0284 
 243   0.0000      22.599705       614.9692 
 244   0.0000      22.704228       617.8135 
 245   0.0000      22.882220       622.6569 

                    ********************************
                    * MULLIKEN POPULATION ANALYSIS *
                    ********************************

-----------------------
MULLIKEN ATOMIC CHARGES
-----------------------
   0 C :   -0.107627
   1 C :   -0.106835
   2 C :   -0.280068
   3 C :   -0.264214
   4 C :   -0.264444
   5 C :   -0.279538
   6 H :    0.108928
   7 H :    0.108888
   8 H :    0.136522
   9 H :    0.136088
  10 H :    0.139186
  11 H :    0.130689
  12 H :    0.139104
  13 H :    0.130696
  14 H :    0.136040
  15 H :    0.136585
Sum of atomic charges:   -0.0000000

--------------------------------
MULLIKEN REDUCED ORBITAL CHARGES
--------------------------------
  0 C s       :     3.176311  s :     3.176311
      pz      :     0.956135  p :     2.835248
      px      :     0.923857
      py      :     0.955257
      dz2     :     0.010090  d :     0.088965
      dxz     :     0.018756
      dyz     :     0.011017
      dx2y2   :     0.024667
      dxy     :     0.024435
      f0      :     0.000474  f :     0.007103
      f+1     :     0.000739
      f-1     :     0.001087
      f+2     :     0.001206
      f-2     :     0.000913
      f+3     :     0.000876
      f-3     :     0.001807
  1 C s       :     3.175625  s :     3.175625
      pz      :     0.960471  p :     2.835163
      px      :     0.907700
      py      :     0.966992
      dz2     :     0.010665  d :     0.088944
      dxz     :     0.023057
      dyz     :     0.009066
      dx2y2   :     0.020271
      dxy     :     0.025884
      f0      :     0.000665  f :     0.007103
      f+1     :     0.000739
      f-1     :     0.001007
      f+2     :     0.001553
      f-2     :     0.000782
      f+3     :     0.000930
      f-3     :     0.001427
  2 C s       :     3.221312  s :     3.221312
      pz      :     0.984123  p :     2.987668
      px      :     1.035666
      py      :     0.967879
      dz2     :     0.012524  d :     0.066286
      dxz     :     0.007675
      dyz     :     0.016013
      dx2y2   :     0.020533
      dxy     :     0.009541
      f0      :     0.000255  f :     0.004802
      f+1     :     0.000691
      f-1     :     0.001070
      f+2     :     0.000815
      f-2     :     0.000720
      f+3     :     0.000750
      f-3     :     0.000500
  3 C s       :     3.221188  s :     3.221188
      pz      :     1.034072  p :     2.974237
      px      :     0.962512
      py      :     0.977653
      dz2     :     0.005117  d :     0.064052
      dxz     :     0.021490
      dyz     :     0.007499
      dx2y2   :     0.013972
      dxy     :     0.015974
      f0      :     0.000191  f :     0.004737
      f+1     :     0.000703
      f-1     :     0.000496
      f+2     :     0.000844
      f-2     :     0.000666
      f+3     :     0.000562
      f-3     :     0.001275
  4 C s       :     3.221537  s :     3.221537
      pz      :     1.028187  p :     2.973985
      px      :     0.973028
      py      :     0.972770
      dz2     :     0.006026  d :     0.064181
      dxz     :     0.023622
      dyz     :     0.005074
      dx2y2   :     0.007521
      dxy     :     0.021938
      f0      :     0.000453  f :     0.004740
      f+1     :     0.000612
      f-1     :     0.000354
      f+2     :     0.000808
      f-2     :     0.000626
      f+3     :     0.000628
      f-3     :     0.001259
  5 C s       :     3.220907  s :     3.220907
      pz      :     1.010654  p :     2.987410
      px      :     1.008634
      py      :     0.968122
      dz2     :     0.011370  d :     0.066419
      dxz     :     0.006121
      dyz     :     0.016073
      dx2y2   :     0.019457
      dxy     :     0.013398
      f0      :     0.000277  f :     0.004802
      f+1     :     0.000400
      f-1     :     0.001056
      f+2     :     0.000640
      f-2     :     0.000777
      f+3     :     0.000761
      f-3     :     0.000891
  6 H s       :     0.869222  s :     0.869222
      pz      :     0.009047  p :     0.021850
      px      :     0.005625
      py      :     0.007178
  7 H s       :     0.869261  s :     0.869261
      pz      :     0.007341  p :     0.021850
      px      :     0.005915
      py      :     0.008595
  8 H s       :     0.840767  s :     0.840767
      pz      :     0.009585  p :     0.022711
      px      :     0.005708
      py      :     0.007418
  9 H s       :     0.842117  s :     0.842117
      pz      :     0.004299  p :     0.021795
      px      :     0.013125
      py      :     0.004370
 10 H s       :     0.838926  s :     0.838926
      pz      :     0.008810  p :     0.021888
      px      :     0.005608
      py      :     0.007470
 11 H s       :     0.847088  s :     0.847088
      pz      :     0.009149  p :     0.022224
      px      :     0.007072
      py      :     0.006003
 12 H s       :     0.839008  s :     0.839008
      pz      :     0.006717  p :     0.021888
      px      :     0.006617
      py      :     0.008554
 13 H s       :     0.847091  s :     0.847091
      pz      :     0.011542  p :     0.022213
      px      :     0.005453
      py      :     0.005217
 14 H s       :     0.842166  s :     0.842166
      pz      :     0.004696  p :     0.021794
      px      :     0.012665
      py      :     0.004433
 15 H s       :     0.840712  s :     0.840712
      pz      :     0.011276  p :     0.022704
      px      :     0.004882
      py      :     0.006546


                     *******************************
                     * LOEWDIN POPULATION ANALYSIS *
                     *******************************

----------------------
LOEWDIN ATOMIC CHARGES
----------------------
   0 C :   -0.219205
   1 C :   -0.219241
   2 C :   -0.190078
   3 C :   -0.249493
   4 C :   -0.249473
   5 C :   -0.190026
   6 H :    0.144143
   7 H :    0.144168
   8 H :    0.132694
   9 H :    0.125961
  10 H :    0.127415
  11 H :    0.128418
  12 H :    0.127505
  13 H :    0.128454
  14 H :    0.125997
  15 H :    0.132762

-------------------------------
LOEWDIN REDUCED ORBITAL CHARGES
-------------------------------
  0 C s       :     2.781259  s :     2.781259
      pz      :     0.953787  p :     2.990037
      px      :     1.045660
      py      :     0.990591
      dz2     :     0.043427  d :     0.404578
      dxz     :     0.087485
      dyz     :     0.059286
      dx2y2   :     0.100099
      dxy     :     0.114282
      f0      :     0.003189  f :     0.043331
      f+1     :     0.005258
      f-1     :     0.004550
      f+2     :     0.007221
      f-2     :     0.004348
      f+3     :     0.006445
      f-3     :     0.012321
  1 C s       :     2.781240  s :     2.781240
      pz      :     0.969067  p :     2.989984
      px      :     1.046620
      py      :     0.974297
      dz2     :     0.046794  d :     0.404686
      dxz     :     0.104100
      dyz     :     0.048464
      dx2y2   :     0.088801
      dxy     :     0.116526
      f0      :     0.004615  f :     0.043331
      f+1     :     0.004107
      f-1     :     0.004161
      f+2     :     0.008093
      f-2     :     0.005374
      f+3     :     0.006965
      f-3     :     0.010017
  2 C s       :     2.855723  s :     2.855723
      pz      :     1.007303  p :     3.029591
      px      :     1.044070
      py      :     0.978218
      dz2     :     0.049820  d :     0.277137
      dxz     :     0.038791
      dyz     :     0.064163
      dx2y2   :     0.085359
      dxy     :     0.039005
      f0      :     0.002011  f :     0.027627
      f+1     :     0.003478
      f-1     :     0.004341
      f+2     :     0.004757
      f-2     :     0.004750
      f+3     :     0.003959
      f-3     :     0.004331
  3 C s       :     2.866505  s :     2.866505
      pz      :     1.018173  p :     3.073502
      px      :     1.109662
      py      :     0.945666
      dz2     :     0.024359  d :     0.281948
      dxz     :     0.110508
      dyz     :     0.026815
      dx2y2   :     0.055215
      dxy     :     0.065052
      f0      :     0.002450  f :     0.027538
      f+1     :     0.004211
      f-1     :     0.002656
      f+2     :     0.004792
      f-2     :     0.002301
      f+3     :     0.004435
      f-3     :     0.006693
  4 C s       :     2.866424  s :     2.866424
      pz      :     1.022707  p :     3.073263
      px      :     1.101501
      py      :     0.949055
      dz2     :     0.039943  d :     0.282235
      dxz     :     0.102315
      dyz     :     0.015938
      dx2y2   :     0.043509
      dxy     :     0.080530
      f0      :     0.003171  f :     0.027552
      f+1     :     0.003840
      f-1     :     0.001551
      f+2     :     0.004972
      f-2     :     0.002950
      f+3     :     0.005137
      f-3     :     0.005932
  5 C s       :     2.855641  s :     2.855641
      pz      :     1.011674  p :     3.029324
      px      :     1.016183
      py      :     1.001467
      dz2     :     0.056802  d :     0.277419
      dxz     :     0.023799
      dyz     :     0.065361
      dx2y2   :     0.077730
      dxy     :     0.053727
      f0      :     0.001533  f :     0.027642
      f+1     :     0.002836
      f-1     :     0.004427
      f+2     :     0.004272
      f-2     :     0.004438
      f+3     :     0.004790
      f-3     :     0.005346
  6 H s       :     0.797734  s :     0.797734
      pz      :     0.024345  p :     0.058122
      px      :     0.015271
      py      :     0.018506
  7 H s       :     0.797724  s :     0.797724
      pz      :     0.020189  p :     0.058108
      px      :     0.016221
      py      :     0.021698
  8 H s       :     0.803495  s :     0.803495
      pz      :     0.025548  p :     0.063812
      px      :     0.018038
      py      :     0.020226
  9 H s       :     0.811964  s :     0.811964
      pz      :     0.012747  p :     0.062075
      px      :     0.036387
      py      :     0.012941
 10 H s       :     0.809651  s :     0.809651
      pz      :     0.026301  p :     0.062934
      px      :     0.015630
      py      :     0.021002
 11 H s       :     0.808110  s :     0.808110
      pz      :     0.027038  p :     0.063472
      px      :     0.019188
      py      :     0.017246
 12 H s       :     0.809564  s :     0.809564
      pz      :     0.021099  p :     0.062931
      px      :     0.018130
      py      :     0.023702
 13 H s       :     0.808101  s :     0.808101
      pz      :     0.033050  p :     0.063446
      px      :     0.015124
      py      :     0.015272
 14 H s       :     0.811930  s :     0.811930
      pz      :     0.014610  p :     0.062073
      px      :     0.034865
      py      :     0.012598
 15 H s       :     0.803436  s :     0.803436
      pz      :     0.030915  p :     0.063802
      px      :     0.015136
      py      :     0.017751


                      *****************************
                      * MAYER POPULATION ANALYSIS *
                      *****************************

  NA   - Mulliken gross atomic population
  ZA   - Total nuclear charge
  QA   - Mulliken gross atomic charge
  VA   - Mayer's total valence
  BVA  - Mayer's bonded valence
  FA   - Mayer's free valence

  ATOM       NA         ZA         QA         VA         BVA        FA
  0 C      6.1076     6.0000    -0.1076     3.9404     3.9404    -0.0000
  1 C      6.1068     6.0000    -0.1068     3.9395     3.9395    -0.0000
  2 C      6.2801     6.0000    -0.2801     3.9641     3.9641     0.0000
  3 C      6.2642     6.0000    -0.2642     3.9207     3.9207     0.0000
  4 C      6.2644     6.0000    -0.2644     3.9203     3.9203     0.0000
  5 C      6.2795     6.0000    -0.2795     3.9641     3.9641    -0.0000
  6 H      0.8911     1.0000     0.1089     0.9704     0.9704     0.0000
  7 H      0.8911     1.0000     0.1089     0.9704     0.9704    -0.0000
  8 H      0.8635     1.0000     0.1365     0.9600     0.9600    -0.0000
  9 H      0.8639     1.0000     0.1361     0.9688     0.9688    -0.0000
 10 H      0.8608     1.0000     0.1392     0.9599     0.9599     0.0000
 11 H      0.8693     1.0000     0.1307     0.9769     0.9769    -0.0000
 12 H      0.8609     1.0000     0.1391     0.9600     0.9600     0.0000
 13 H      0.8693     1.0000     0.1307     0.9768     0.9768     0.0000
 14 H      0.8640     1.0000     0.1360     0.9688     0.9688    -0.0000
 15 H      0.8634     1.0000     0.1366     0.9599     0.9599    -0.0000

  Mayer bond orders larger than 0.100000
B(  0-C ,  1-C ) :   1.3313 B(  0-C ,  5-C ) :   1.5854 B(  0-C ,  6-H ) :   0.9596 
B(  1-C ,  2-C ) :   1.5856 B(  1-C ,  7-H ) :   0.9596 B(  2-C ,  3-C ) :   0.3258 
B(  2-C ,  5-C ) :   0.1182 B(  2-C ,  8-H ) :   0.9504 B(  2-C ,  9-H ) :   0.9556 
B(  3-C ,  4-C ) :   1.6201 B(  3-C , 10-H ) :   0.9541 B(  3-C , 11-H ) :   0.9558 
B(  4-C ,  5-C ) :   0.3262 B(  4-C , 12-H ) :   0.9540 B(  4-C , 13-H ) :   0.9558 
B(  5-C , 14-H ) :   0.9556 B(  5-C , 15-H ) :   0.9503 


------------------
HIRSHFELD ANALYSIS
------------------

Total integrated alpha density =     23.000023567
Total integrated beta density  =     23.000023567

  ATOM     CHARGE      SPIN    
   0 C   -0.053519    0.000000
   1 C   -0.053495    0.000000
   2 C   -0.050263    0.000000
   3 C   -0.065291    0.000000
   4 C   -0.065190    0.000000
   5 C   -0.050131    0.000000
   6 H    0.033728    0.000000
   7 H    0.033691    0.000000
   8 H    0.035080    0.000000
   9 H    0.036126    0.000000
  10 H    0.032523    0.000000
  11 H    0.031421    0.000000
  12 H    0.032575    0.000000
  13 H    0.031436    0.000000
  14 H    0.036143    0.000000
  15 H    0.035119    0.000000

  TOTAL  -0.000047    0.000000

-------
TIMINGS
-------

Total SCF time: 0 days 0 hours 1 min 19 sec 

Total time                  ....      79.599 sec
Sum of individual times     ....      79.407 sec  ( 99.8%)

Fock matrix formation       ....      76.145 sec  ( 95.7%)
  Split-RI-J                ....       4.658 sec  (  6.1% of F)
  Chain of spheres X        ....      60.434 sec  ( 79.4% of F)
  XC integration            ....      11.021 sec  ( 14.5% of F)
    Basis function eval.    ....       2.864 sec  ( 26.0% of XC)
    Density eval.           ....       3.216 sec  ( 29.2% of XC)
    XC-Functional eval.     ....       0.381 sec  (  3.5% of XC)
    XC-Potential eval.      ....       4.302 sec  ( 39.0% of XC)
Diagonalization             ....       0.063 sec  (  0.1%)
Density matrix formation    ....       0.006 sec  (  0.0%)
Population analysis         ....       0.575 sec  (  0.7%)
Initial guess               ....       0.622 sec  (  0.8%)
Orbital Transformation      ....       0.000 sec  (  0.0%)
Orbital Orthonormalization  ....       0.000 sec  (  0.0%)
DIIS solution               ....       0.018 sec  (  0.0%)
SOSCF solution              ....       0.018 sec  (  0.0%)
Grid generation             ....       1.961 sec  (  2.5%)

Maximum memory used throughout the entire SCF-calculation: 132.3 MB


-------------------------------------------------------------------------------
                          DFT DISPERSION CORRECTION                            
                                                                               
                              DFTD3 V3.1  Rev 1                                
                          USING Becke-Johnson damping                          
-------------------------------------------------------------------------------
The PBE0 functional is recognized
Active option DFTDOPT                   ...         4   

molecular C6(AA) [au] = 2283.024128 


            DFT-D V3
 parameters
 s6 scaling factor         :     1.0000 
 a1 scaling factor         :     0.4145 
 s8 scaling factor         :     1.2177 
 a2 scaling factor         :     4.8593 
 ad hoc parameters k1-k3   :    16.0000     1.3333    -4.0000 

 Edisp/kcal,au: -8.183896972464  -0.013041868590 
 E6   /kcal   :  -5.216514820 
 E8   /kcal   :  -2.967382152 
 % E8         :  36.258791654 

-------------------------   ----------------
Dispersion correction           -0.013041869
-------------------------   ----------------


-------------------------   --------------------
FINAL SINGLE POINT ENERGY      -234.341901573471
-------------------------   --------------------


                            ***************************************
                            *     ORCA property calculations      *
                            ***************************************

                                    ---------------------
                                    Active property flags
                                    ---------------------
   (+) Dipole Moment


------------------------------------------------------------------------------
                       ORCA ELECTRIC PROPERTIES CALCULATION
------------------------------------------------------------------------------

Dipole Moment Calculation                       ... on
Quadrupole Moment Calculation                   ... off
Polarizability Calculation                      ... off
GBWName                                         ... TS_5ZPuRE_ll_ad_2-3_4-5_sp_orca.gbw
Electron density                                ... TS_5ZPuRE_ll_ad_2-3_4-5_sp_orca.scfp
The origin for moment calculation is the CENTER OF MASS  = (-0.033376, -0.279449 -0.005512)

-------------
DIPOLE MOMENT
-------------
                                X             Y             Z
Electronic contribution:     -0.26598      -2.26902      -0.00853
Nuclear contribution   :      0.28946       2.42304       0.04804
                        -----------------------------------------
Total Dipole Moment    :      0.02349       0.15402       0.03951
                        -----------------------------------------
Magnitude (a.u.)       :      0.16073
Magnitude (Debye)      :      0.40855



--------------------
Rotational spectrum 
--------------------
 
Rotational constants in cm-1:     0.144521     0.114617     0.075185 
Rotational constants in MHz :  4332.626624  3436.124961  2253.991812 

 Dipole components along the rotational axes: 
x,y,z [a.u.] :     0.160443    -0.000534     0.009662 
x,y,z [Debye]:     0.407813    -0.001358     0.024558 

 

Timings for individual modules:

Sum of individual times         ...       79.981 sec (=   1.333 min)
GTO integral calculation        ...        0.363 sec (=   0.006 min)   0.5 %
SCF iterations                  ...       79.618 sec (=   1.327 min)  99.5 %
                             ****ORCA TERMINATED NORMALLY****
TOTAL RUN TIME: 0 days 0 hours 1 minutes 20 seconds 204 msec
