      -----------------------------------------------------------      
     |                   =====================                   |     
     |                           x T B                           |     
     |                   =====================                   |     
     |                         S. Grimme                         |     
     |          Mulliken Center for Theoretical Chemistry        |     
     |                    University of Bonn                     |     
      -----------------------------------------------------------      

   * xtb version 6.6.1 (8d0f1dd) compiled by 'conda@1efc2f54142f' on 2023-08-01

   xtb is free software: you can redistribute it and/or modify it under
   the terms of the GNU Lesser General Public License as published by
   the Free Software Foundation, either version 3 of the License, or
   (at your option) any later version.
   
   xtb is distributed in the hope that it will be useful,
   but WITHOUT ANY WARRANTY; without even the implied warranty of
   MERCHANTABILITY or FITNESS FOR A PARTICULAR PURPOSE.  See the
   GNU Lesser General Public License for more details.
   
   Cite this work as:
   * C. Bannwarth, E. Caldeweyher, S. Ehlert, A. Hansen, P. Pracht,
     J. Seibert, S. Spicher, S. Grimme, WIREs Comput. Mol. Sci., 2020, 11,
     e01493. DOI: 10.1002/wcms.1493
   
   for GFN2-xTB:
   * C. Bannwarth, S. Ehlert and S. Grimme., J. Chem. Theory Comput., 2019,
     15, 1652-1671. DOI: 10.1021/acs.jctc.8b01176
   for GFN1-xTB:
   * S. Grimme, C. Bannwarth, P. Shushkov, J. Chem. Theory Comput., 2017,
     13, 1989-2009. DOI: 10.1021/acs.jctc.7b00118
   for GFN0-xTB:
   * P. Pracht, E. Caldeweyher, S. Ehlert, S. Grimme, ChemRxiv, 2019, preprint.
     DOI: 10.26434/chemrxiv.8326202.v1
   for GFN-FF:
   * S. Spicher and S. Grimme, Angew. Chem. Int. Ed., 2020, 59, 15665-15673.
     DOI: 10.1002/anie.202004239
   
   for ALPB and GBSA implicit solvation:
   * S. Ehlert, M. Stahn, S. Spicher, S. Grimme, J. Chem. Theory Comput.,
     2021, 17, 4250-4261. DOI: 10.1021/acs.jctc.1c00471
   
   for DFT-D4:
   * E. Caldeweyher, C. Bannwarth and S. Grimme, J. Chem. Phys., 2017,
     147, 034112. DOI: 10.1063/1.4993215
   * E. Caldeweyher, S. Ehlert, A. Hansen, H. Neugebauer, S. Spicher,
     C. Bannwarth and S. Grimme, J. Chem. Phys., 2019, 150, 154122.
     DOI: 10.1063/1.5090222
   * E. Caldeweyher, J.-M. Mewes, S. Ehlert and S. Grimme, Phys. Chem. Chem. Phys.
     2020, 22, 8499-8512. DOI: 10.1039/D0CP00502A
   
   for sTDA-xTB:
   * S. Grimme and C. Bannwarth, J. Chem. Phys., 2016, 145, 054103.
     DOI: 10.1063/1.4959605
   
   in the mass-spec context:
   * V. Asgeirsson, C. Bauer and S. Grimme, Chem. Sci., 2017, 8, 4879.
     DOI: 10.1039/c7sc00601b
   * J. Koopman and S. Grimme, ACS Omega 2019, 4, 12, 15120-15133.
     DOI: 10.1021/acsomega.9b02011
   
   for metadynamics refer to:
   * S. Grimme, J. Chem. Theory Comput., 2019, 155, 2847-2862
     DOI: 10.1021/acs.jctc.9b00143
   
   for SPH calculations refer to:
   * S. Spicher and S. Grimme, J. Chem. Theory Comput., 2021, 17, 1701-1714
     DOI: 10.1021/acs.jctc.0c01306
   
   with help from (in alphabetical order)
   P. Atkinson, C. Bannwarth, F. Bohle, G. Brandenburg, E. Caldeweyher
   M. Checinski, S. Dohm, S. Ehlert, S. Ehrlich, I. Gerasimov, C. Hölzer
   A. Katbashev, J. Koopman, C. Lavigne, S. Lehtola, F. März, M. Müller,
   F. Musil, H. Neugebauer, J. Pisarek, C. Plett, P. Pracht, F. Pultar,
   J. Seibert, P. Shushkov, S. Spicher, M. Stahn, M. Steiner, T. Strunk,
   J. Stückrath, T. Rose, and J. Unsleber
   
 * started run on 2025/05/23 at 11:01:16.725     

           -------------------------------------------------
          |                Calculation Setup                |
           -------------------------------------------------

          program call               : /home/avcopan/code/other/saddle-search-practice/.pixi/envs/default/bin/xtb H2_opt_xtb.xyz --chrg 0 --uhf 0 --opt
          coordinate file            : H2_opt_xtb.xyz
          omp threads                :                     1

   ID    Z sym.   atoms
    1    1 H      1, 2

           -------------------------------------------------
          |                 G F N 2 - x T B                 |
           -------------------------------------------------

        Reference                      10.1021/acs.jctc.8b01176
      * Hamiltonian:
        H0-scaling (s, p, d)           1.850000    2.230000    2.230000
        zeta-weighting                 0.500000
      * Dispersion:
        s8                             2.700000
        a1                             0.520000
        a2                             5.000000
        s9                             5.000000
      * Repulsion:
        kExp                           1.500000    1.000000
        rExp                           1.000000
      * Coulomb:
        alpha                          2.000000
        third order                    shell-resolved
        anisotropic                    true
        a3                             3.000000
        a5                             4.000000
        cn-shift                       1.200000
        cn-exp                         4.000000
        max-rad                        5.000000


          ...................................................
          :                      SETUP                      :
          :.................................................:
          :  # basis functions                   2          :
          :  # atomic orbitals                   2          :
          :  # shells                            2          :
          :  # electrons                         2          :
          :  max. iterations                   250          :
          :  Hamiltonian                  GFN2-xTB          :
          :  restarted?                      false          :
          :  GBSA solvation                  false          :
          :  PC potential                    false          :
          :  electronic temp.          300.0000000     K    :
          :  accuracy                    1.0000000          :
          :  -> integral cutoff          0.2500000E+02      :
          :  -> integral neglect         0.1000000E-07      :
          :  -> SCF convergence          0.1000000E-05 Eh   :
          :  -> wf. convergence          0.1000000E-03 e    :
          :  Broyden damping             0.4000000          :
          ...................................................

 iter      E             dE          RMSdq      gap      omega  full diag
   1     -1.0276942 -0.102769E+01  0.379E+00   22.48       0.0  T
   2     -1.0276942  0.000000E+00  0.228E+00   21.42       1.0  T
   3     -1.0276942  0.000000E+00  0.137E-04   19.82     517.9  T
   4     -1.0276942  0.000000E+00  0.303E-14   19.82  100000.0  T

   *** convergence criteria satisfied after 4 iterations ***

         #    Occupation            Energy/Eh            Energy/eV
      -------------------------------------------------------------
         1        2.0000           -0.4772489             -12.9866 (HOMO)
         2                          0.2510527               6.8315 (LUMO)
      -------------------------------------------------------------
                  HL-Gap            0.7283016 Eh           19.8181 eV
             Fermi-level           -0.1130981 Eh           -3.0776 eV

 SCC (total)                   0 d,  0 h,  0 min,  0.011 sec
 SCC setup                      ...        0 min,  0.001 sec ( 11.202%)
 Dispersion                     ...        0 min,  0.000 sec (  0.156%)
 classical contributions        ...        0 min,  0.001 sec (  9.947%)
 integral evaluation            ...        0 min,  0.001 sec ( 13.256%)
 iterations                     ...        0 min,  0.007 sec ( 64.320%)
 molecular gradient             ...        0 min,  0.000 sec (  0.500%)
 printout                       ...        0 min,  0.000 sec (  0.492%)

         :::::::::::::::::::::::::::::::::::::::::::::::::::::
         ::                     SUMMARY                     ::
         :::::::::::::::::::::::::::::::::::::::::::::::::::::
         :: total energy              -0.979815432153 Eh    ::
         :: gradient norm              0.065925774852 Eh/a0 ::
         :: HOMO-LUMO gap             19.818096336141 eV    ::
         ::.................................................::
         :: SCC energy                -1.027694249149 Eh    ::
         :: -> isotropic ES            0.000000000000 Eh    ::
         :: -> anisotropic ES          0.007140811754 Eh    ::
         :: -> anisotropic XC          0.008228995913 Eh    ::
         :: -> dispersion             -0.000052261462 Eh    ::
         :: repulsion energy           0.047878816996 Eh    ::
         :: add. restraining           0.000000000000 Eh    ::
         :: total charge               0.000000000000 e     ::
         :::::::::::::::::::::::::::::::::::::::::::::::::::::

      ----------------------------------------------------------- 
     |                   =====================                   |
     |                        A N C O P T                        |
     |                   =====================                   |
     |               Approximate Normal Coordinate               |
     |                Rational Function Optimizer                |
      ----------------------------------------------------------- 

          ...................................................
          :                      SETUP                      :
          :.................................................:
          :   optimization level            normal          :
          :   max. optcycles                   200          :
          :   ANC micro-cycles                  20          :
          :   degrees of freedom                 1          :
          :.................................................:
          :   RF solver                   davidson          :
          :   write xtbopt.log                true          :
          :   linear (good luck)              true          :
          :   energy convergence         0.5000000E-05 Eh   :
          :   grad. convergence          0.1000000E-02 Eh/α :
          :   maxmium RF displ.          1.0000000          :
          :   Hlow (freq-cutoff)         0.1000000E-01      :
          :   Hmax (freq-cutoff)         5.0000000          :
          :   S6 in model hess.         20.0000000          :
          ...................................................

generating ANC from model Hessian ...
Using Lindh-Hessian (1995)
 Shifting diagonal of input Hessian by    0.0000000000000000     
 Lowest  eigenvalues of input Hessian
    0.000000    0.000000    0.000000    0.000000    0.000000    0.836486
 Highest eigenvalues
    0.000000    0.000000    0.000000    0.000000    0.000000    0.836486


........................................................................
.............................. CYCLE    1 ..............................
........................................................................

 iter      E             dE          RMSdq      gap      omega  full diag
   1     -1.0276942 -0.102769E+01  0.284E-15   19.82       0.0  T
   2     -1.0276942  0.000000E+00  0.171E-15   19.82  100000.0  T
   3     -1.0276942  0.000000E+00  0.444E-15   19.82  100000.0  T
     SCC iter.                  ...        0 min,  0.000 sec
     gradient                   ...        0 min,  0.000 sec
 * total energy  :    -0.9798154 Eh     change        0.0000000E+00 Eh
   gradient norm :     0.0659258 Eh/α   predicted     0.0000000E+00 (    NaN%)
   displ. norm   :     0.0783292 α      lambda       -0.5163916E-02
   maximum displ.:     0.0783292 α      in ANC's #1, #1, #1, ...

........................................................................
.............................. CYCLE    2 ..............................
........................................................................

 iter      E             dE          RMSdq      gap      omega  full diag
   1     -1.0172021 -0.101720E+01  0.375E-01   16.80       0.0  T
   2     -1.0172021  0.000000E+00  0.225E-01   16.75       1.0  T
   3     -1.0172021  0.000000E+00  0.135E-05   16.68    5231.6  T
   4     -1.0172021  0.000000E+00  0.229E-15   16.68  100000.0  T
     SCC iter.                  ...        0 min,  0.000 sec
     gradient                   ...        0 min,  0.000 sec
 * total energy  :    -0.9826094 Eh     change       -0.2793942E-02 Eh
   gradient norm :     0.0093407 Eh/α   predicted    -0.2597798E-02 (  -7.02%)
   displ. norm   :     0.0129280 α      lambda       -0.1207555E-03
   maximum displ.:     0.0129280 α      in ANC's #1, #1, #1, ...

........................................................................
.............................. CYCLE    3 ..............................
........................................................................

 iter      E             dE          RMSdq      gap      omega  full diag
   1     -1.0154877 -0.101549E+01  0.614E-02   16.24       0.0  T
   2     -1.0154877  0.000000E+00  0.368E-02   16.24       1.9  T
   3     -1.0154877  0.000000E+00  0.599E-07   16.23  100000.0  T
   4     -1.0154877  0.000000E+00  0.605E-15   16.23  100000.0  T
     SCC iter.                  ...        0 min,  0.000 sec
     gradient                   ...        0 min,  0.000 sec
 * total energy  :    -0.9826824 Eh     change       -0.7300622E-04 Eh
   gradient norm :     0.0020321 Eh/α   predicted    -0.6038845E-04 ( -17.28%)
   displ. norm   :     0.0035944 α      lambda       -0.7304193E-05
   maximum displ.:     0.0035944 α      in ANC's #1, #1, #1, ...

........................................................................
.............................. CYCLE    4 ..............................
........................................................................

 iter      E             dE          RMSdq      gap      omega  full diag
   1     -1.0150120 -0.101501E+01  0.170E-02   16.11       0.0  T
   2     -1.0150120  0.000000E+00  0.102E-02   16.11       6.9  T
   3     -1.0150120  0.000000E+00  0.128E-08   16.10  100000.0  T
   4     -1.0150120  0.000000E+00  0.354E-15   16.10  100000.0  T
     SCC iter.                  ...        0 min,  0.000 sec
     gradient                   ...        0 min,  0.000 sec
 * total energy  :    -0.9826862 Eh     change       -0.3788758E-05 Eh
   gradient norm :     0.0000818 Eh/α   predicted    -0.3652135E-05 (  -3.61%)
   displ. norm   :     0.0002261 α      lambda       -0.1288450E-07
   maximum displ.:     0.0002261 α      in ANC's #1, #1, #1, ...

   *** GEOMETRY OPTIMIZATION CONVERGED AFTER 4 ITERATIONS ***

------------------------------------------------------------------------
 total energy gain   :        -0.0028707 Eh       -1.8014 kcal/mol
 total RMSD          :         0.0670702 a0        0.0355 Å
 total power (kW/mol):        -1.8842794 (step) -884.8592 (real)
------------------------------------------------------------------------

 ANCopt (total)                0 d,  0 h,  0 min,  0.009 sec
 optimizer setup                ...        0 min,  0.000 sec (  1.377%)
 model hessian                  ...        0 min,  0.001 sec (  8.766%)
 ANC generation                 ...        0 min,  0.000 sec (  0.546%)
 coordinate transformation      ...        0 min,  0.000 sec (  0.161%)
 single point calculation       ...        0 min,  0.001 sec ( 12.836%)
 optimization log               ...        0 min,  0.000 sec (  1.339%)
 hessian update                 ...        0 min,  0.000 sec (  0.163%)
 rational function              ...        0 min,  0.006 sec ( 71.963%)

================
 final structure:
================
2
 xtb: 6.6.1 (8d0f1dd)
H            0.38829202085966       -0.00000000000000        0.00000000000000
H           -0.38829202085966        0.00000000000000        0.00000000000000

 Bond Distances (Angstroems)
 ---------------------------
H1-H2=0.7766         H2-H1=0.7766         
 H  H  Rav=0.7766 sigma=0.0000  Rmin=0.7766  Rmax=0.7766     1

 selected bond angles (degree)
 --------------------


 selected dihedral angles (degree)
 ---------------------------------

           -------------------------------------------------
          |                Final Singlepoint                |
           -------------------------------------------------

          ...................................................
          :                      SETUP                      :
          :.................................................:
          :  # basis functions                   2          :
          :  # atomic orbitals                   2          :
          :  # shells                            2          :
          :  # electrons                         2          :
          :  max. iterations                   250          :
          :  Hamiltonian                  GFN2-xTB          :
          :  restarted?                      false          :
          :  GBSA solvation                  false          :
          :  PC potential                    false          :
          :  electronic temp.          300.0000000     K    :
          :  accuracy                    1.0000000          :
          :  -> integral cutoff          0.2500000E+02      :
          :  -> integral neglect         0.1000000E-07      :
          :  -> SCF convergence          0.1000000E-05 Eh   :
          :  -> wf. convergence          0.1000000E-03 e    :
          :  Broyden damping             0.4000000          :
          ...................................................

 iter      E             dE          RMSdq      gap      omega  full diag
   1     -1.0150120 -0.101501E+01  0.308E-15   16.10       0.0  T
   2     -1.0150120  0.000000E+00  0.189E-15   16.10  100000.0  T
   3     -1.0150120  0.000000E+00  0.555E-16   16.10  100000.0  T

   *** convergence criteria satisfied after 3 iterations ***

         #    Occupation            Energy/Eh            Energy/eV
      -------------------------------------------------------------
         1        2.0000           -0.4647515             -12.6465 (HOMO)
         2                          0.1270516               3.4572 (LUMO)
      -------------------------------------------------------------
                  HL-Gap            0.5918030 Eh           16.1038 eV
             Fermi-level           -0.1688499 Eh           -4.5946 eV

 SCC (total)                   0 d,  0 h,  0 min,  0.000 sec
 SCC setup                      ...        0 min,  0.000 sec ( 26.175%)
 Dispersion                     ...        0 min,  0.000 sec (  2.054%)
 classical contributions        ...        0 min,  0.000 sec (  1.276%)
 integral evaluation            ...        0 min,  0.000 sec (  4.856%)
 iterations                     ...        0 min,  0.000 sec ( 30.283%)
 molecular gradient             ...        0 min,  0.000 sec ( 10.613%)
 printout                       ...        0 min,  0.000 sec ( 20.759%)

         :::::::::::::::::::::::::::::::::::::::::::::::::::::
         ::                     SUMMARY                     ::
         :::::::::::::::::::::::::::::::::::::::::::::::::::::
         :: total energy              -0.982686168659 Eh    ::
         :: gradient norm              0.000081770950 Eh/a0 ::
         :: HOMO-LUMO gap             16.103779977738 eV    ::
         ::.................................................::
         :: SCC energy                -1.015012041606 Eh    ::
         :: -> isotropic ES            0.000000000000 Eh    ::
         :: -> anisotropic ES          0.008489416635 Eh    ::
         :: -> anisotropic XC          0.009177516404 Eh    ::
         :: -> dispersion             -0.000053143338 Eh    ::
         :: repulsion energy           0.032325872947 Eh    ::
         :: add. restraining           0.000000000000 Eh    ::
         :: total charge              -0.000000000000 e     ::
         :::::::::::::::::::::::::::::::::::::::::::::::::::::

           -------------------------------------------------
          |                Property Printout                |
           -------------------------------------------------

    * Orbital Energies and Occupations

         #    Occupation            Energy/Eh            Energy/eV
      -------------------------------------------------------------
         1        2.0000           -0.4647515             -12.6465 (HOMO)
         2                          0.1270516               3.4572 (LUMO)
      -------------------------------------------------------------
                  HL-Gap            0.5918030 Eh           16.1038 eV
             Fermi-level           -0.1688499 Eh           -4.5946 eV

     #   Z          covCN         q      C6AA      α(0)
     1   1 H        0.814    -0.000     3.105     2.766
     2   1 H        0.814    -0.000     3.105     2.766

 Mol. C6AA /au·bohr⁶  :         12.419747
 Mol. C8AA /au·bohr⁸  :        150.134252
 Mol. α(0) /au        :          5.532418


Wiberg/Mayer (AO) data.
largest (>0.10) Wiberg bond orders for each atom

 ---------------------------------------------------------------------------
     #   Z sym  total        # sym  WBO       # sym  WBO       # sym  WBO
 ---------------------------------------------------------------------------
     1   1 H    1.000 --     2 H    1.000
     2   1 H    1.000 --     1 H    1.000
 ---------------------------------------------------------------------------

Topologies differ in total number of bonds
Writing topology from bond orders to xtbtopo.mol

molecular dipole:
                 x           y           z       tot (Debye)
 q only:        0.000       0.000       0.000
   full:        0.000       0.000       0.000       0.000
molecular quadrupole (traceless):
                xx          xy          yy          xz          yz          zz
 q only:       -0.000       0.000       0.000       0.000       0.000       0.000
  q+dip:        0.841      -0.000      -0.420       0.000       0.000      -0.420
   full:        0.338      -0.000      -0.169       0.000       0.000      -0.169

           -------------------------------------------------
          |                Geometry Summary                 |
           -------------------------------------------------

      molecular mass/u    :        2.0158815
   center of mass at/Å    :        0.0000000      -0.0000000       0.0000000
  moments of inertia/u·Å² :       -0.7647740E-63   0.3039359E+00   0.3039359E+00
rotational constants/cm⁻¹ :       -0.2204263E+65   0.5546443E+02   0.5546443E+02

 * 1 selected distances

     #   Z          #   Z                                           value/Å
     0   0          0   0                                         0.0000000 (max)

 * 0 distinct bonds (by element types)

   Z      Z             #   av. dist./Å        max./Å        min./Å


optimized geometry written to: xtbopt.xyz


           -------------------------------------------------
          | TOTAL ENERGY               -0.982686168659 Eh   |
          | GRADIENT NORM               0.000081770950 Eh/α |
          | HOMO-LUMO GAP              16.103779977738 eV   |
           -------------------------------------------------

------------------------------------------------------------------------
 * finished run on 2025/05/23 at 11:01:16.777     
------------------------------------------------------------------------
 total:
 * wall-time:     0 d,  0 h,  0 min,  0.052 sec
 *  cpu-time:     0 d,  0 h,  0 min,  0.012 sec
 * ratio c/w:     0.223 speedup
 SCF:
 * wall-time:     0 d,  0 h,  0 min,  0.011 sec
 *  cpu-time:     0 d,  0 h,  0 min,  0.002 sec
 * ratio c/w:     0.178 speedup
 ANC optimizer:
 * wall-time:     0 d,  0 h,  0 min,  0.010 sec
 *  cpu-time:     0 d,  0 h,  0 min,  0.003 sec
 * ratio c/w:     0.269 speedup

