
                                 *****************
                                 * O   R   C   A *
                                 *****************

                                            #,                                       
                                            ###                                      
                                            ####                                     
                                            #####                                    
                                            ######                                   
                                           ########,                                 
                                     ,,################,,,,,                         
                               ,,#################################,,                 
                          ,,##########################################,,             
                       ,#########################################, ''#####,          
                    ,#############################################,,   '####,        
                  ,##################################################,,,,####,       
                ,###########''''           ''''###############################       
              ,#####''   ,,,,##########,,,,          '''####'''          '####       
            ,##' ,,,,###########################,,,                        '##       
           ' ,,###''''                  '''############,,,                           
         ,,##''                                '''############,,,,        ,,,,,,###''
      ,#''                                            '''#######################'''  
     '                                                          ''''####''''         
             ,#######,   #######,   ,#######,      ##                                
            ,#'     '#,  ##    ##  ,#'     '#,    #''#        ######   ,####,        
            ##       ##  ##   ,#'  ##            #'  '#       #        #'  '#        
            ##       ##  #######   ##           ,######,      #####,   #    #        
            '#,     ,#'  ##    ##  '#,     ,#' ,#      #,         ##   #,  ,#        
             '#######'   ##     ##  '#######'  #'      '#     #####' # '####'        



                  #######################################################
                  #                        -***-                        #
                  #          Department of theory and spectroscopy      #
                  #    Directorship and core code : Frank Neese         #
                  #        Max Planck Institute fuer Kohlenforschung    #
                  #                Kaiser Wilhelm Platz 1               #
                  #                 D-45470 Muelheim/Ruhr               #
                  #                      Germany                        #
                  #                                                     #
                  #                  All rights reserved                #
                  #                        -***-                        #
                  #######################################################


                         Program Version 5.0.4 -  RELEASE  -


 With contributions from (in alphabetic order):
   Daniel Aravena         : Magnetic Suceptibility
   Michael Atanasov       : Ab Initio Ligand Field Theory (pilot matlab implementation)
   Alexander A. Auer      : GIAO ZORA, VPT2 properties, NMR spectrum
   Ute Becker             : Parallelization
   Giovanni Bistoni       : ED, misc. LED, open-shell LED, HFLD
   Martin Brehm           : Molecular dynamics
   Dmytro Bykov           : SCF Hessian
   Vijay G. Chilkuri      : MRCI spin determinant printing, contributions to CSF-ICE
   Dipayan Datta          : RHF DLPNO-CCSD density
   Achintya Kumar Dutta   : EOM-CC, STEOM-CC
   Dmitry Ganyushin       : Spin-Orbit,Spin-Spin,Magnetic field MRCI
   Miquel Garcia          : C-PCM and meta-GGA Hessian, CC/C-PCM, Gaussian charge scheme
   Yang Guo               : DLPNO-NEVPT2, F12-NEVPT2, CIM, IAO-localization
   Andreas Hansen         : Spin unrestricted coupled pair/coupled cluster methods
   Benjamin Helmich-Paris : MC-RPA, TRAH-SCF, COSX integrals
   Lee Huntington         : MR-EOM, pCC
   Robert Izsak           : Overlap fitted RIJCOSX, COSX-SCS-MP3, EOM
   Marcus Kettner         : VPT2
   Christian Kollmar      : KDIIS, OOCD, Brueckner-CCSD(T), CCSD density, CASPT2, CASPT2-K
   Simone Kossmann        : Meta GGA functionals, TD-DFT gradient, OOMP2, MP2 Hessian
   Martin Krupicka        : Initial AUTO-CI
   Lucas Lang             : DCDCAS
   Marvin Lechner         : AUTO-CI (C++ implementation), FIC-MRCC
   Dagmar Lenk            : GEPOL surface, SMD
   Dimitrios Liakos       : Extrapolation schemes; Compound Job, initial MDCI parallelization
   Dimitrios Manganas     : Further ROCIS development; embedding schemes
   Dimitrios Pantazis     : SARC Basis sets
   Anastasios Papadopoulos: AUTO-CI, single reference methods and gradients
   Taras Petrenko         : DFT Hessian,TD-DFT gradient, ASA, ECA, R-Raman, ABS, FL, XAS/XES, NRVS
   Peter Pinski           : DLPNO-MP2, DLPNO-MP2 Gradient
   Christoph Reimann      : Effective Core Potentials
   Marius Retegan         : Local ZFS, SOC
   Christoph Riplinger    : Optimizer, TS searches, QM/MM, DLPNO-CCSD(T), (RO)-DLPNO pert. Triples
   Tobias Risthaus        : Range-separated hybrids, TD-DFT gradient, RPA, STAB
   Michael Roemelt        : Original ROCIS implementation
   Masaaki Saitow         : Open-shell DLPNO-CCSD energy and density
   Barbara Sandhoefer     : DKH picture change effects
   Avijit Sen             : IP-ROCIS
   Kantharuban Sivalingam : CASSCF convergence, NEVPT2, FIC-MRCI
   Bernardo de Souza      : ESD, SOC TD-DFT
   Georgi Stoychev        : AutoAux, RI-MP2 NMR, DLPNO-MP2 response
   Willem Van den Heuvel  : Paramagnetic NMR
   Boris Wezisla          : Elementary symmetry handling
   Frank Wennmohs         : Technical directorship


 We gratefully acknowledge several colleagues who have allowed us to
 interface, adapt or use parts of their codes:
   Stefan Grimme, W. Hujo, H. Kruse, P. Pracht,  : VdW corrections, initial TS optimization,
                  C. Bannwarth, S. Ehlert          DFT functionals, gCP, sTDA/sTD-DF
   Ed Valeev, F. Pavosevic, A. Kumar             : LibInt (2-el integral package), F12 methods
   Garnet Chan, S. Sharma, J. Yang, R. Olivares  : DMRG
   Ulf Ekstrom                                   : XCFun DFT Library
   Mihaly Kallay                                 : mrcc  (arbitrary order and MRCC methods)
   Jiri Pittner, Ondrej Demel                    : Mk-CCSD
   Frank Weinhold                                : gennbo (NPA and NBO analysis)
   Christopher J. Cramer and Donald G. Truhlar   : smd solvation model
   Lars Goerigk                                  : TD-DFT with DH, B97 family of functionals
   V. Asgeirsson, H. Jonsson                     : NEB implementation
   FAccTs GmbH                                   : IRC, NEB, NEB-TS, DLPNO-Multilevel, CI-OPT
                                                   MM, QMMM, 2- and 3-layer-ONIOM, Crystal-QMMM,
                                                   LR-CPCM, SF, NACMEs, symmetry and pop. for TD-DFT,
                                                   nearIR, NL-DFT gradient (VV10), updates on ESD,
                                                   ML-optimized integration grids
   S Lehtola, MJT Oliveira, MAL Marques          : LibXC Library
   Liviu Ungur et al                             : ANISO software


 Your calculation uses the libint2 library for the computation of 2-el integrals
 For citations please refer to: http://libint.valeyev.net

 Your ORCA version has been built with support for libXC version: 5.1.0
 For citations please refer to: https://tddft.org/programs/libxc/

 This ORCA versions uses:
   CBLAS   interface :  Fast vector & matrix operations
   LAPACKE interface :  Fast linear algebra routines
   SCALAPACK package :  Parallel linear algebra routines
   Shared memory     :  Shared parallel matrices
   BLAS/LAPACK       :  OpenBLAS 0.3.15  USE64BITINT DYNAMIC_ARCH NO_AFFINITY Haswell SINGLE_THREADED
        Core in use  :  Haswell
   Copyright (c) 2011-2014, The OpenBLAS Project


Your calculation utilizes the atom-pairwise dispersion correction
with the Becke-Johnson damping scheme (D3BJ)
Cite in your paper:
S.Grimme, S.Ehrlich, L.Goerigk, J Comput Chem, (2011), 32, 1456–1465 
S.Grimme, J.Antony, S.Ehrlich and H.Krieg, J.Chem.Phys., 132, (2010), 154104 
   

================================================================================

----- Orbital basis set information -----
Your calculation utilizes the basis: def2-SVP
   F. Weigend and R. Ahlrichs, Phys. Chem. Chem. Phys. 7, 3297 (2005).

----- AuxJ basis set information -----
Your calculation utilizes the auxiliary basis: def2/J
   F. Weigend, Phys. Chem. Chem. Phys. 8, 1057 (2006).

================================================================================
                                        WARNINGS
                       Please study these warnings very carefully!
================================================================================


WARNING: Geometry Optimization
  ===> : Switching off AutoStart
         For restart on a previous wavefunction, please use MOREAD

INFO   : the flag for use of the SHARK integral package has been found!

================================================================================
                                       INPUT FILE
================================================================================
NAME = TS_5ZPuRE_ll_ad_2-3_4-5_conf299_opt_orca.inp
|  1> ! LooseOpt PBE0 RIJCOSX D3BJ def2-SVP def2/J 
|  2> %geom Constraints
|  3> { B 2 3 2.300049366945611 C }
|  4> { B 4 5 2.29771874679169 C }
|  5>     end
|  6> end
|  7> %geom MaxIter 10 end
|  8> %output 
|  9> xyzfile=True 
| 10> end 
| 11> %scf 
| 12> maxiter 250 
| 13> end
| 14> %output
| 15> Print[P_Hirshfeld] = 1
| 16> end
| 17> % maxcore
| 18> 4000
| 19> *xyz 0 1
| 20> C   -1.57093909  -1.78063350  -0.41636672 
| 21> C   -0.22144649  -1.91642315  -0.81438368 
| 22> C    0.48243345  -0.88918825  -1.35165494 
| 23> C    0.35718956   0.56791688   0.42323843 
| 24> C   -0.93784777   0.70915738   0.79030265 
| 25> C   -2.25308422  -0.61591954  -0.54882433 
| 26> H   -1.98799295  -2.56981672   0.19529398 
| 27> H    0.30523333  -2.80201600  -0.48455753 
| 28> H    1.54184483  -0.98642674  -1.52588595 
| 29> H   -0.00379316  -0.10110801  -1.89635295 
| 30> H    0.83245374   1.28922378  -0.21886336 
| 31> H    1.01380088  -0.08642462   0.96954180 
| 32> H   -1.52169595   1.54486110   0.44482702 
| 33> H   -1.32979182   0.17397024   1.63731096 
| 34> H   -3.23643947  -0.50929031  -0.11997743 
| 35> H   -2.00465487   0.09480746  -1.31519797 
| 36> *
| 37> 
| 38>                          ****END OF INPUT****
================================================================================

                       *****************************
                       * Geometry Optimization Run *
                       *****************************

Geometry optimization settings:
Update method            Update   .... BFGS
Choice of coordinates    CoordSys .... Z-matrix Internals
Initial Hessian          InHess   .... Almoef's Model

Convergence Tolerances:
Energy Change            TolE     ....  3.0000e-05 Eh
Max. Gradient            TolMAXG  ....  2.0000e-03 Eh/bohr
RMS Gradient             TolRMSG  ....  5.0000e-04 Eh/bohr
Max. Displacement        TolMAXD  ....  1.0000e-02 bohr
RMS Displacement         TolRMSD  ....  7.0000e-03 bohr
Strict Convergence                ....  False
------------------------------------------------------------------------------
                        ORCA OPTIMIZATION COORDINATE SETUP
------------------------------------------------------------------------------

The optimization will be done in new redundant internal coordinates
Making redundant internal coordinates   ...  (new redundants) done
Evaluating the initial hessian          ...  (Almloef) done
Evaluating the coordinates              ...  done
Calculating the B-matrix                .... done
Calculating the G-matrix                .... done
Diagonalizing the G-matrix              .... done
Imposing constraints:
 Iter   0:  RMS(Cart)=    0.0000190747 RMS(Int)=    0.0002746415
 Iter   1:  RMS(Cart)=    0.0000141490 RMS(Int)=    0.0002034767
 Iter   2:  RMS(Cart)=    0.0000104965 RMS(Int)=    0.0001507653
 Iter   3:  RMS(Cart)=    0.0000077880 RMS(Int)=    0.0001117191
 Iter   4:  RMS(Cart)=    0.0000057791 RMS(Int)=    0.0000827931
 Iter   5:  RMS(Cart)=    0.0000042890 RMS(Int)=    0.0000613625
 Iter   6:  RMS(Cart)=    0.0000031835 RMS(Int)=    0.0000454837
 Iter   7:  RMS(Cart)=    0.0000023634 RMS(Int)=    0.0000337173
 Iter   8:  RMS(Cart)=    0.0000017547 RMS(Int)=    0.0000249975
 Iter   9:  RMS(Cart)=    0.0000013030 RMS(Int)=    0.0000185348
 Iter  10:  RMS(Cart)=    0.0000009678 RMS(Int)=    0.0000137445
 Iter  11:  RMS(Cart)=    0.0000007189 RMS(Int)=    0.0000101934
 Iter  12:  RMS(Cart)=    0.0000005341 RMS(Int)=    0.0000075607
 Iter  13:  RMS(Cart)=    0.0000003969 RMS(Int)=    0.0000056086
 Iter  14:  RMS(Cart)=    0.0000002949 RMS(Int)=    0.0000041611
 Iter  15:  RMS(Cart)=    0.0000002192 RMS(Int)=    0.0000030876
 Iter  16:  RMS(Cart)=    0.0000001630 RMS(Int)=    0.0000022913
 Iter  17:  RMS(Cart)=    0.0000001212 RMS(Int)=    0.0000017006
 Iter  18:  RMS(Cart)=    0.0000000901 RMS(Int)=    0.0000012624
 Iter  19:  RMS(Cart)=    0.0000000670 RMS(Int)=    0.0000009372
 Iter  20:  RMS(Cart)=    0.0000000499 RMS(Int)=    0.0000006959
 Iter  21:  RMS(Cart)=    0.0000000371 RMS(Int)=    0.0000005168
 Iter  22:  RMS(Cart)=    0.0000000276 RMS(Int)=    0.0000003839
 Iter  23:  RMS(Cart)=    0.0000000206 RMS(Int)=    0.0000002852
 Iter  24:  RMS(Cart)=    0.0000000153 RMS(Int)=    0.0000002119
 Iter  25:  RMS(Cart)=    0.0000000114 RMS(Int)=    0.0000001574
 Iter  26:  RMS(Cart)=    0.0000000085 RMS(Int)=    0.0000001170
 Iter  27:  RMS(Cart)=    0.0000000063 RMS(Int)=    0.0000000870
CONVERGED
The first mode is                       ....  123
The number of degrees of freedom        ....   42
Storing new coordinates                 .... done

    -----------------------------------------------------------------
                    Redundant Internal Coordinates


    -----------------------------------------------------------------
         Definition                    Initial Value    Approx d2E/dq
    -----------------------------------------------------------------
      1. B(C   1,C   0)                  1.4135         0.573117   
      2. B(C   2,C   1)                  1.3562         0.707360   
      3. B(C   3,C   1)                  2.8353         0.003090   
      4. B(C   3,C   2)                  2.3000         0.022091 C 
      5. B(C   4,C   0)                  2.8384         0.003055   
      6. B(C   4,C   3)                  1.3534         0.714601   
      7. B(C   5,C   0)                  1.3562         0.707258   
      8. B(C   5,C   4)                  2.2977         0.022271 C 
      9. B(H   6,C   0)                  1.0821         0.370746   
     10. B(H   7,C   1)                  1.0819         0.371012   
     11. B(H   8,C   3)                  2.7603         0.000779   
     12. B(H   8,C   2)                  1.0780         0.376278   
     13. B(H   9,C   2)                  1.0743         0.381439   
     14. B(H   9,C   4)                  2.9576         0.000377   
     15. B(H   9,C   3)                  2.4411         0.002518   
     16. B(H  10,C   3)                  1.0763         0.378666   
     17. B(H  10,C   2)                  2.4803         0.002180   
     18. B(H  10,H   8)                  2.7185         0.000174   
     19. B(H  10,H   9)                  2.3338         0.000715   
     20. B(H  11,C   1)                  2.8385         0.000585   
     21. B(H  11,C   3)                  1.0759         0.379122   
     22. B(H  11,C   2)                  2.5130         0.001933   
     23. B(H  11,H   8)                  2.7048         0.000183   
     24. B(H  12,C   4)                  1.0764         0.378551   
     25. B(H  12,C   5)                  2.4883         0.002117   
     26. B(H  13,C   0)                  2.8454         0.000570   
     27. B(H  13,C   4)                  1.0758         0.379304   
     28. B(H  13,C   5)                  2.5012         0.002019   
     29. B(H  14,H  13)                  2.6815         0.000199   
     30. B(H  14,C   5)                  1.0780         0.376212   
     31. B(H  14,C   4)                  2.7563         0.000791   
     32. B(H  14,H  12)                  2.7348         0.000164   
     33. B(H  15,C   3)                  2.9706         0.000360   
     34. B(H  15,C   4)                  2.4390         0.002536   
     35. B(H  15,H  12)                  2.3310         0.000722   
     36. B(H  15,C   5)                  1.0743         0.381442   
     37. A(C   1,C   0,C   5)          122.3583         0.438234   
     38. A(C   4,C   0,C   5)           53.1597         0.195810   
     39. A(C   5,C   0,H   6)          119.1869         0.362692   
     40. A(C   1,C   0,C   4)           89.4868         0.190845   
     41. A(C   1,C   0,H   6)          117.1984         0.349969   
     42. A(C   4,C   0,H   6)          119.0393         0.168815   
     43. A(C   2,C   1,H   7)          119.2155         0.362745   
     44. A(C   2,C   1,C   3)           53.3728         0.196087   
     45. A(C   0,C   1,C   2)          122.2970         0.438245   
     46. A(C   3,C   1,H   7)          119.0011         0.169033   
     47. A(C   0,C   1,H   7)          117.2310         0.350011   
     48. A(C   0,C   1,C   3)           89.2954         0.191106   
     49. A(C   1,C   2,H   8)          120.3845         0.363620   
     50. A(H   8,C   2,H   9)          115.4038         0.295531   
     51. A(C   1,C   2,C   3)           98.3853         0.256140   
     52. A(C   1,C   2,H   9)          121.4386         0.364468   
     53. A(C   3,C   2,H   8)          103.6105         0.214313   
     54. A(C   3,C   2,H   9)           84.3626         0.214700   
     55. A(C   2,C   3,C   4)          109.1190         0.256526   
     56. A(C   2,C   3,H  11)           88.4652         0.214527   
     57. A(C   1,C   3,C   2)           28.2418         0.137866   
     58. A(C   4,C   3,H  10)          120.9577         0.364648   
     59. A(C   4,C   3,H  11)          120.6438         0.364723   
     60. A(H  10,C   3,H  11)          116.1650         0.295542   
     61. A(C   1,C   3,C   4)           90.8346         0.196334   
     62. A(C   2,C   3,H  10)           86.5639         0.214492   
     63. A(C   1,C   3,H  10)          114.6343         0.169403   
     64. A(C   1,C   3,H  11)           79.2360         0.169425   
     65. A(C   3,C   4,H  12)          120.8639         0.364629   
     66. A(C   3,C   4,H  13)          120.6770         0.364753   
     67. A(H  12,C   4,H  13)          116.1862         0.295550   
     68. A(C   3,C   4,C   5)          109.2379         0.256834   
     69. A(C   5,C   4,H  13)           87.9010         0.214771   
     70. A(C   0,C   4,C   3)           90.3782         0.196060   
     71. A(C   5,C   4,H  12)           87.1431         0.214714   
     72. A(C   0,C   4,C   5)           28.1892         0.137830   
     73. A(C   0,C   4,H  12)          115.0599         0.169193   
     74. A(C   0,C   4,H  13)           79.4576         0.169229   
     75. A(C   0,C   5,H  14)          120.3236         0.363600   
     76. A(C   0,C   5,H  15)          121.4324         0.364459   
     77. A(H  14,C   5,H  15)          115.4203         0.295523   
     78. A(C   0,C   5,C   4)           98.6511         0.256442   
     79. A(C   4,C   5,H  14)          103.4861         0.214538   
     80. A(C   4,C   5,H  15)           84.3651         0.214931   
     81. D(C   2,C   1,C   0,C   5)      0.2080         0.029654   
     82. D(C   2,C   1,C   0,H   6)   -166.8704         0.029654   
     83. D(H   7,C   1,C   0,C   5)    167.2908         0.029654   
     84. D(C   3,C   1,C   0,H   6)   -122.4012         0.029654   
     85. D(C   3,C   1,C   0,C   4)      0.3623         0.029654   
     86. D(H   7,C   1,C   0,H   6)      0.2124         0.029654   
     87. D(C   3,C   1,C   0,C   5)     44.6772         0.029654   
     88. D(C   2,C   1,C   0,C   4)    -44.1068         0.029654   
     89. D(H   7,C   1,C   0,C   4)    122.9759         0.029654   
     90. D(H   8,C   2,C   1,C   3)    111.2332         0.049253   
     91. D(H   9,C   2,C   1,C   0)    -27.7062         0.049253   
     92. D(H   9,C   2,C   1,H   7)    165.4578         0.049253   
     93. D(C   3,C   2,C   1,H   7)   -106.0473         0.049253   
     94. D(C   3,C   2,C   1,C   0)     60.7886         0.049253   
     95. D(H   8,C   2,C   1,H   7)      5.1858         0.049253   
     96. D(H   8,C   2,C   1,C   0)    172.0218         0.049253   
     97. D(H   9,C   2,C   1,C   3)    -88.4949         0.049253   
     98. D(C   4,C   3,C   2,H   8)   -176.3838         0.001541   
     99. D(C   4,C   3,C   2,C   1)    -52.2083         0.001541   
    100. D(H  11,C   3,C   2,H   9)   -169.1655         0.001541   
    101. D(H  10,C   3,C   1,C   2)      6.7565         0.001501   
    102. D(C   4,C   3,C   2,H   9)     68.8046         0.001541   
    103. D(C   4,C   3,C   1,C   0)     -0.7600         0.001501   
    104. D(H  11,C   3,C   1,H   7)     -0.7793         0.001501   
    105. D(C   1,C   3,C   2,H   8)   -124.1754         0.001541   
    106. D(H  11,C   3,C   2,C   1)     69.8215         0.001541   
    107. D(H  10,C   3,C   1,H   7)    113.2135         0.001501   
    108. D(H  11,C   3,C   2,H   8)    -54.3539         0.001541   
    109. D(C   2,C   3,C   1,H   7)    106.4570         0.001501   
    110. D(C   4,C   3,C   1,H   7)   -121.8512         0.001501   
    111. D(H  10,C   3,C   2,C   1)   -173.8498         0.001541   
    112. D(H  10,C   3,C   2,H   8)     61.9748         0.001541   
    113. D(H  11,C   3,C   1,C   0)    120.3119         0.001501   
    114. D(H  10,C   3,C   1,C   0)   -125.6953         0.001501   
    115. D(H  10,C   3,C   2,H   9)    -52.8369         0.001541   
    116. D(H  11,C   3,C   1,C   2)   -107.2363         0.001501   
    117. D(C   1,C   3,C   2,H   9)    121.0130         0.001541   
    118. D(C   2,C   3,C   1,C   0)   -132.4518         0.001501   
    119. D(C   4,C   3,C   1,C   2)    131.6918         0.001501   
    120. D(C   5,C   4,C   3,H  10)     98.6674         0.062006   
    121. D(C   3,C   4,C   0,C   5)   -133.2516         0.001501   
    122. D(C   3,C   4,C   0,C   1)     -0.7591         0.001501   
    123. D(C   0,C   4,C   3,H  10)    120.0387         0.062006   
    124. D(H  12,C   4,C   0,C   5)     -8.5426         0.001501   
    125. D(H  12,C   4,C   0,H   6)   -114.8624         0.001501   
    126. D(H  13,C   4,C   3,H  10)   -162.0145         0.062006   
    127. D(H  13,C   4,C   0,C   5)    105.5676         0.001501   
    128. D(H  13,C   4,C   0,H   6)     -0.7522         0.001501   
    129. D(C   5,C   4,C   0,C   1)    132.4925         0.001501   
    130. D(C   5,C   4,C   0,H   6)   -106.3198         0.001501   
    131. D(H  12,C   4,C   3,H  10)      0.2106         0.062006   
    132. D(H  12,C   4,C   3,H  11)    162.5831         0.062006   
    133. D(H  12,C   4,C   3,C   1)   -119.4496         0.062006   
    134. D(H  13,C   4,C   0,C   1)   -121.9399         0.001501   
    135. D(H  12,C   4,C   3,C   2)    -97.4884         0.062006   
    136. D(H  13,C   4,C   3,H  11)      0.3579         0.062006   
    137. D(H  13,C   4,C   3,C   1)     78.3252         0.062006   
    138. D(H  12,C   4,C   0,C   1)    123.9500         0.001501   
    139. D(H  13,C   4,C   3,C   2)    100.2864         0.062006   
    140. D(C   0,C   4,C   3,C   2)     22.3397         0.062006   
    141. D(C   0,C   4,C   3,C   1)      0.3785         0.062006   
    142. D(C   5,C   4,C   3,C   2)      0.9683         0.062006   
    143. D(C   3,C   4,C   0,H   6)    120.4286         0.001501   
    144. D(C   5,C   4,C   3,H  11)    -98.9601         0.062006   
    145. D(C   5,C   4,C   3,C   1)    -20.9929         0.062006   
    146. D(C   0,C   4,C   3,H  11)    -77.5888         0.062006   
    147. D(H  14,C   5,C   0,C   1)   -172.0348         0.049238   
    148. D(H  14,C   5,C   0,H   6)     -5.2034         0.049238   
    149. D(H  14,C   5,C   0,C   4)   -111.2399         0.049238   
    150. D(H  15,C   5,C   0,C   1)     27.8637         0.049238   
    151. D(H  15,C   5,C   0,H   6)   -165.3049         0.049238   
    152. D(H  15,C   5,C   0,C   4)     88.6586         0.049238   
    153. D(H  14,C   5,C   4,H  12)    -63.5720         0.001542   
    154. D(C   4,C   5,C   0,H   6)    106.0365         0.049238   
    155. D(C   0,C   5,C   4,C   3)     50.4809         0.001542   
    156. D(C   0,C   5,C   4,H  12)    172.2571         0.001542   
    157. D(C   0,C   5,C   4,H  13)    -71.3859         0.001542   
    158. D(C   4,C   5,C   0,C   1)    -60.7949         0.049238   
    159. D(H  14,C   5,C   4,C   3)    174.6518         0.001542   
    160. D(H  14,C   5,C   4,H  13)     52.7851         0.001542   
    161. D(H  14,C   5,C   4,C   0)    124.1709         0.001542   
    162. D(H  15,C   5,C   4,C   3)    -70.5195         0.001542   
    163. D(H  15,C   5,C   4,H  12)     51.2567         0.001542   
    164. D(H  15,C   5,C   4,H  13)    167.6138         0.001542   
    165. D(H  15,C   5,C   4,C   0)   -121.0004         0.001542   
    -----------------------------------------------------------------

Number of atoms                         .... 16
Number of degrees of freedom            .... 165

         *************************************************************
         *                GEOMETRY OPTIMIZATION CYCLE   1            *
         *************************************************************
---------------------------------
CARTESIAN COORDINATES (ANGSTROEM)
---------------------------------
  C     -1.570938   -1.780623   -0.416384
  C     -0.221426   -1.916436   -0.814425
  C      0.482446   -0.889287   -1.351746
  C      0.357159    0.567994    0.423321
  C     -0.937809    0.709217    0.790348
  C     -2.253105   -0.615946   -0.548850
  H     -1.987992   -2.569798    0.195287
  H      0.305261   -2.802023   -0.484593
  H      1.541791   -0.986446   -1.525896
  H     -0.003758   -0.101177   -1.896338
  H      0.832414    1.289200   -0.218808
  H      1.013740   -0.086365    0.969532
  H     -1.521678    1.544866    0.444858
  H     -1.329765    0.174008    1.637302
  H     -3.236410   -0.509293   -0.119986
  H     -2.004660    0.094799   -1.315171

----------------------------
CARTESIAN COORDINATES (A.U.)
----------------------------
  NO LB      ZA    FRAG     MASS         X           Y           Z
   0 C     6.0000    0    12.011   -2.968644   -3.364890   -0.786852
   1 C     6.0000    0    12.011   -0.418434   -3.621540   -1.539041
   2 C     6.0000    0    12.011    0.911691   -1.680508   -2.554430
   3 C     6.0000    0    12.011    0.674932    1.073353    0.799961
   4 C     6.0000    0    12.011   -1.772202    1.340225    1.493541
   5 C     6.0000    0    12.011   -4.257751   -1.163969   -1.037177
   6 H     1.0000    0     1.008   -3.756761   -4.856215    0.369039
   7 H     1.0000    0     1.008    0.576859   -5.295056   -0.915748
   8 H     1.0000    0     1.008    2.913563   -1.864113   -2.883526
   9 H     1.0000    0     1.008   -0.007101   -0.191196   -3.583559
  10 H     1.0000    0     1.008    1.573035    2.436235   -0.413488
  11 H     1.0000    0     1.008    1.915691   -0.163206    1.832150
  12 H     1.0000    0     1.008   -2.875554    2.919373    0.840660
  13 H     1.0000    0     1.008   -2.512892    0.328828    3.094053
  14 H     1.0000    0     1.008   -6.115928   -0.962425   -0.226741
  15 H     1.0000    0     1.008   -3.788259    0.179143   -2.485313

--------------------------------
INTERNAL COORDINATES (ANGSTROEM)
--------------------------------
 C      0   0   0     0.000000000000     0.00000000     0.00000000
 C      1   0   0     1.413501541191     0.00000000     0.00000000
 C      2   1   0     1.356214922693   122.29562163     0.00000000
 C      3   2   1     2.299801701609    98.38879766    60.78886891
 C      4   3   2     1.353442539060   109.11914985   307.79110293
 C      1   2   3     1.356254255458   122.35645044     0.20920484
 H      1   2   3     1.082068800398   117.19854833   193.13236736
 H      2   1   3     1.081874122988   117.23034540   167.08090891
 H      3   2   1     1.078037216824   120.38065626   172.02843436
 H      3   2   1     1.074328954766   121.43810851   332.28431700
 H      4   3   2     1.076315192451    86.56836191   186.15040172
 H      4   3   2     1.075987265839    88.47048407    69.82102773
 H      5   4   3     1.076398074987   120.86240991   262.50990644
 H      5   4   3     1.075857095697   120.67673220   100.28977855
 H      6   1   2     1.078084877935   120.32182443   187.96357538
 H      6   1   2     1.074327029613   121.43217132    27.86947952

---------------------------
INTERNAL COORDINATES (A.U.)
---------------------------
 C      0   0   0     0.000000000000     0.00000000     0.00000000
 C      1   0   0     2.671130802727     0.00000000     0.00000000
 C      2   1   0     2.562874782626   122.29562163     0.00000000
 C      3   2   1     4.345995378367    98.38879766    60.78886891
 C      4   3   2     2.557635736823   109.11914985   307.79110293
 C      1   2   3     2.562949110781   122.35645044     0.20920484
 H      1   2   3     2.044813690813   117.19854833   193.13236736
 H      2   1   3     2.044445803823   117.23034540   167.08090891
 H      3   2   1     2.037195101971   120.38065626   172.02843436
 H      3   2   1     2.030187502250   121.43810851   332.28431700
 H      4   3   2     2.033940947510    86.56836191   186.15040172
 H      4   3   2     2.033321256022    88.47048407    69.82102773
 H      5   4   3     2.034097572805   120.86240991   262.50990644
 H      5   4   3     2.033075270103   120.67673220   100.28977855
 H      6   1   2     2.037285168419   120.32182443   187.96357538
 H      6   1   2     2.030183864238   121.43217132    27.86947952

---------------------
BASIS SET INFORMATION
---------------------
There are 2 groups of distinct atoms

 Group   1 Type C   : 7s4p1d contracted to 3s2p1d pattern {511/31/1}
 Group   2 Type H   : 4s1p contracted to 2s1p pattern {31/1}

Atom   0C    basis set group =>   1
Atom   1C    basis set group =>   1
Atom   2C    basis set group =>   1
Atom   3C    basis set group =>   1
Atom   4C    basis set group =>   1
Atom   5C    basis set group =>   1
Atom   6H    basis set group =>   2
Atom   7H    basis set group =>   2
Atom   8H    basis set group =>   2
Atom   9H    basis set group =>   2
Atom  10H    basis set group =>   2
Atom  11H    basis set group =>   2
Atom  12H    basis set group =>   2
Atom  13H    basis set group =>   2
Atom  14H    basis set group =>   2
Atom  15H    basis set group =>   2
---------------------------------
AUXILIARY/J BASIS SET INFORMATION
---------------------------------
There are 2 groups of distinct atoms

 Group   1 Type C   : 12s5p4d2f1g contracted to 6s4p3d1f1g pattern {711111/2111/211/2/1}
 Group   2 Type H   : 5s2p1d contracted to 3s1p1d pattern {311/2/1}

Atom   0C    basis set group =>   1
Atom   1C    basis set group =>   1
Atom   2C    basis set group =>   1
Atom   3C    basis set group =>   1
Atom   4C    basis set group =>   1
Atom   5C    basis set group =>   1
Atom   6H    basis set group =>   2
Atom   7H    basis set group =>   2
Atom   8H    basis set group =>   2
Atom   9H    basis set group =>   2
Atom  10H    basis set group =>   2
Atom  11H    basis set group =>   2
Atom  12H    basis set group =>   2
Atom  13H    basis set group =>   2
Atom  14H    basis set group =>   2
Atom  15H    basis set group =>   2
------------------------------------------------------------------------------
                           ORCA GTO INTEGRAL CALCULATION
                           -- RI-GTO INTEGRALS CHOSEN --
------------------------------------------------------------------------------
------------------------------------------------------------------------------
                   ___                                                        
                  /   \      - P O W E R E D   B Y -                         
                 /     \                                                     
                 |  |  |   _    _      __       _____    __    __             
                 |  |  |  | |  | |    /  \     |  _  \  |  |  /  |          
                  \  \/   | |  | |   /    \    | | | |  |  | /  /          
                 / \  \   | |__| |  /  /\  \   | |_| |  |  |/  /          
                |  |  |   |  __  | /  /__\  \  |    /   |      \           
                |  |  |   | |  | | |   __   |  |    \   |  |\   \          
                \     /   | |  | | |  |  |  |  | |\  \  |  | \   \       
                 \___/    |_|  |_| |__|  |__|  |_| \__\ |__|  \__/        
                                                                              
                      - O R C A' S   B I G   F R I E N D -                    
                                      &                                       
                       - I N T E G R A L  F E E D E R -                       
                                                                              
 v1 FN, 2020, v2 2021                                                         
------------------------------------------------------------------------------


Reading SHARK input file TS_5ZPuRE_ll_ad_2-3_4-5_conf299_opt_orca.SHARKINP.tmp ... ok
----------------------
SHARK INTEGRAL PACKAGE
----------------------

Number of atoms                             ...     16
Number of basis functions                   ...    134
Number of shells                            ...     66
Maximum angular momentum                    ...      2
Integral batch strategy                     ... SHARK/LIBINT Hybrid
RI-J (if used) integral strategy            ... SPLIT-RIJ (Revised 2003 algorithm where possible)
Printlevel                                  ...      1
Contraction scheme used                     ... SEGMENTED contraction
Coulomb Range Separation                    ... NOT USED
Exchange Range Separation                   ... NOT USED
Finite Nucleus Model                        ... NOT USED
Auxiliary Coulomb fitting basis             ... AVAILABLE
   # of basis functions in Aux-J            ...    404
   # of shells in Aux-J                     ...    140
   Maximum angular momentum in Aux-J        ...      4
Auxiliary J/K fitting basis                 ... NOT available
Auxiliary Correlation fitting basis         ... NOT available
Auxiliary 'external' fitting basis          ... NOT available
Integral threshold                          ...     2.500000e-11
Primitive cut-off                           ...     2.500000e-12
Primitive pair pre-selection threshold      ...     2.500000e-12

Calculating pre-screening integrals         ... done (  0.0 sec) Dimension = 66
Organizing shell pair data                  ... done (  0.0 sec)
Shell pair information
Total number of shell pairs                 ...      2211
Shell pairs after pre-screening             ...      2183
Total number of primitive shell pairs       ...      7611
Primitive shell pairs kept                  ...      5883
          la=0 lb=0:    730 shell pairs
          la=1 lb=0:    822 shell pairs
          la=1 lb=1:    250 shell pairs
          la=2 lb=0:    228 shell pairs
          la=2 lb=1:    132 shell pairs
          la=2 lb=2:     21 shell pairs

Calculating one electron integrals          ... done (  0.0 sec)
Calculating RI/J V-Matrix + Cholesky decomp.... done (  0.0 sec)
Calculating Nuclear repulsion               ... done (  0.0 sec) ENN=    226.346634609277 Eh

SHARK setup successfully completed in   0.1 seconds

Maximum memory used throughout the entire GTOINT-calculation: 16.3 MB
-------------------------------------------------------------------------------
                                 ORCA SCF
-------------------------------------------------------------------------------

------------
SCF SETTINGS
------------
Hamiltonian:
 Density Functional     Method          .... DFT(GTOs)
 Exchange Functional    Exchange        .... PBE
   PBE kappa parameter   XKappa         ....  0.804000
   PBE mue parameter    XMuePBE         ....  0.219520
 Correlation Functional Correlation     .... PBE
   PBE beta parameter  CBetaPBE         ....  0.066725
 LDA part of GGA corr.  LDAOpt          .... PW91-LDA
 Gradients option       PostSCFGGA      .... off
 Hybrid DFT is turned on
   Fraction HF Exchange ScalHFX         ....  0.250000
   Scaling of DF-GGA-X  ScalDFX         ....  0.750000
   Scaling of DF-GGA-C  ScalDFC         ....  1.000000
   Scaling of DF-LDA-C  ScalLDAC        ....  1.000000
   Perturbative correction              ....  0.000000
   Density functional embedding theory  .... OFF
   NL short-range parameter             ....  6.900000
 RI-approximation to the Coulomb term is turned on
   Number of AuxJ basis functions       .... 404
   RIJ-COSX (HFX calculated with COS-X)).... on


General Settings:
 Integral files         IntName         .... TS_5ZPuRE_ll_ad_2-3_4-5_conf299_opt_orca
 Hartree-Fock type      HFTyp           .... RHF
 Total Charge           Charge          ....    0
 Multiplicity           Mult            ....    1
 Number of Electrons    NEL             ....   46
 Basis Dimension        Dim             ....  134
 Nuclear Repulsion      ENuc            ....    226.3466346093 Eh

Convergence Acceleration:
 DIIS                   CNVDIIS         .... on
   Start iteration      DIISMaxIt       ....    12
   Startup error        DIISStart       ....  0.200000
   # of expansion vecs  DIISMaxEq       ....     5
   Bias factor          DIISBfac        ....   1.050
   Max. coefficient     DIISMaxC        ....  10.000
 Trust-Rad. Augm. Hess. CNVTRAH         .... auto
   Auto Start mean grad. ratio tolernc. ....  1.125000
   Auto Start start iteration           ....    20
   Auto Start num. interpolation iter.  ....    10
   Max. Number of Micro iterations      ....    16
   Max. Number of Macro iterations      .... Maxiter - #DIIS iter
   Number of Davidson start vectors     ....     2
   Converg. threshold I  (grad. norm)   ....   1.000e-05
   Converg. threshold II (energy diff.) ....   1.000e-08
   Grad. Scal. Fac. for Micro threshold ....   0.100
   Minimum threshold for Micro iter.    ....   0.010
   NR start threshold (gradient norm)   ....   0.001
   Initial trust radius                 ....   0.400
   Minimum AH scaling param. (alpha)    ....   1.000
   Maximum AH scaling param. (alpha)    .... 1000.000
   Orbital update algorithm             .... Taylor
   White noise on init. David. guess    .... on
   Maximum white noise                  ....   0.010
   Quad. conv. algorithm                .... NR
 SOSCF                  CNVSOSCF        .... on
   Start iteration      SOSCFMaxIt      ....   150
   Startup grad/error   SOSCFStart      ....  0.003300
 Level Shifting         CNVShift        .... on
   Level shift para.    LevelShift      ....    0.2500
   Turn off err/grad.   ShiftErr        ....    0.0010
 Zerner damping         CNVZerner       .... off
 Static damping         CNVDamp         .... on
   Fraction old density DampFac         ....    0.7000
   Max. Damping (<1)    DampMax         ....    0.9800
   Min. Damping (>=0)   DampMin         ....    0.0000
   Turn off err/grad.   DampErr         ....    0.1000
 Fernandez-Rico         CNVRico         .... off

SCF Procedure:
 Maximum # iterations   MaxIter         ....   250
 SCF integral mode      SCFMode         .... Direct
   Integral package                     .... SHARK and LIBINT hybrid scheme
 Reset frequency        DirectResetFreq ....    20
 Integral Threshold     Thresh          ....  2.500e-11 Eh
 Primitive CutOff       TCut            ....  2.500e-12 Eh

Convergence Tolerance:
 Convergence Check Mode ConvCheckMode   .... Total+1el-Energy
 Convergence forced     ConvForced      .... 0
 Energy Change          TolE            ....  1.000e-08 Eh
 1-El. energy change                    ....  1.000e-05 Eh
 Orbital Gradient       TolG            ....  1.000e-05
 Orbital Rotation angle TolX            ....  1.000e-05
 DIIS Error             TolErr          ....  5.000e-07


Diagonalization of the overlap matrix:
Smallest eigenvalue                        ... 9.138e-04
Time for diagonalization                   ...    0.002 sec
Threshold for overlap eigenvalues          ... 1.000e-08
Number of eigenvalues below threshold      ... 0
Time for construction of square roots      ...    0.001 sec
Total time needed                          ...    0.003 sec

Time for model grid setup =    0.142 sec

------------------------------
INITIAL GUESS: MODEL POTENTIAL
------------------------------
Loading Hartree-Fock densities                     ... done
Calculating cut-offs                               ... done
Initializing the effective Hamiltonian             ... done
Setting up the integral package (SHARK)            ... done
Starting the Coulomb interaction                   ... done (   0.1 sec)
Reading the grid                                   ... done
Mapping shells                                     ... done
Starting the XC term evaluation                    ... done (   0.2 sec)
  promolecular density results
     # of electrons  =     45.993672594
     EX              =    -33.571568257
     EC              =     -1.472725442
     EX+EC           =    -35.044293699
Transforming the Hamiltonian                       ... done (   0.0 sec)
Diagonalizing the Hamiltonian                      ... done (   0.0 sec)
Back transforming the eigenvectors                 ... done (   0.0 sec)
Now organizing SCF variables                       ... done
                      ------------------
                      INITIAL GUESS DONE (   0.4 sec)
                      ------------------
-------------------
DFT GRID GENERATION
-------------------

General Integration Accuracy     IntAcc      ... 4.388
Radial Grid Type                 RadialGrid  ... OptM3 with GC (2021)
Angular Grid (max. ang.)         AngularGrid ... 4 (Lebedev-302)
Angular grid pruning method      GridPruning ... 4 (adaptive)
Weight generation scheme         WeightScheme... Becke
Basis function cutoff            BFCut       ... 1.0000e-11
Integration weight cutoff        WCut        ... 1.0000e-14
Angular grids for H and He will be reduced by one unit
Partially contracted basis set               ... off
Rotationally invariant grid construction     ... off

Total number of grid points                  ...    68238
Total number of batches                      ...     1073
Average number of points per batch           ...       63
Average number of grid points per atom       ...     4265
Time for grid setup =    0.580 sec

--------------------
COSX GRID GENERATION
--------------------

GRIDX 1
-------
General Integration Accuracy     IntAcc      ... 3.816
Radial Grid Type                 RadialGrid  ... OptM3 with GC (2021)
Angular Grid (max. ang.)         AngularGrid ... 1 (Lebedev-50)
Angular grid pruning method      GridPruning ... 4 (adaptive)
Weight generation scheme         WeightScheme... Becke
Basis function cutoff            BFCut       ... 1.0000e-11
Integration weight cutoff        WCut        ... 1.0000e-14
Angular grids for H and He will be reduced by one unit
Partially contracted basis set               ... on
Rotationally invariant grid construction     ... off

Total number of grid points                  ...     8764
Total number of batches                      ...      146
Average number of points per batch           ...       60
Average number of grid points per atom       ...      548
UseSFitting                                  ... on

GRIDX 2
-------
General Integration Accuracy     IntAcc      ... 4.020
Radial Grid Type                 RadialGrid  ... OptM3 with GC (2021)
Angular Grid (max. ang.)         AngularGrid ... 2 (Lebedev-110)
Angular grid pruning method      GridPruning ... 4 (adaptive)
Weight generation scheme         WeightScheme... Becke
Basis function cutoff            BFCut       ... 1.0000e-11
Integration weight cutoff        WCut        ... 1.0000e-14
Angular grids for H and He will be reduced by one unit
Partially contracted basis set               ... on
Rotationally invariant grid construction     ... off

Total number of grid points                  ...    18371
Total number of batches                      ...      295
Average number of points per batch           ...       62
Average number of grid points per atom       ...     1148
UseSFitting                                  ... on

GRIDX 3
-------
General Integration Accuracy     IntAcc      ... 4.338
Radial Grid Type                 RadialGrid  ... OptM3 with GC (2021)
Angular Grid (max. ang.)         AngularGrid ... 3 (Lebedev-194)
Angular grid pruning method      GridPruning ... 4 (adaptive)
Weight generation scheme         WeightScheme... Becke
Basis function cutoff            BFCut       ... 1.0000e-11
Integration weight cutoff        WCut        ... 1.0000e-14
Angular grids for H and He will be reduced by one unit
Partially contracted basis set               ... on
Rotationally invariant grid construction     ... off

Total number of grid points                  ...    40164
Total number of batches                      ...      635
Average number of points per batch           ...       63
Average number of grid points per atom       ...     2510
UseSFitting                                  ... on

Time for X-Grid setup             =    0.688 sec

--------------
SCF ITERATIONS
--------------
ITER       Energy         Delta-E        Max-DP      RMS-DP      [F,P]     Damp
               ***  Starting incremental Fock matrix formation  ***
  0   -233.9073285080   0.000000000000 0.05985530  0.00229839  0.1245363 0.7000
  1   -233.9812599366  -0.073931428648 0.03865160  0.00166077  0.0700061 0.7000
                               ***Turning on DIIS***
  2   -234.0146108351  -0.033350898478 0.05968776  0.00295105  0.0312836 0.0000
  3   -234.0615456873  -0.046934852197 0.02684857  0.00117324  0.0360192 0.0000
  4   -234.0737706899  -0.012225002621 0.00486980  0.00027155  0.0072546 0.0000
                      *** Initiating the SOSCF procedure ***
                           *** Shutting down DIIS ***
                      *** Re-Reading the Fockian *** 
                      *** Removing any level shift *** 
ITER      Energy       Delta-E        Grad      Rot      Max-DP    RMS-DP
  5   -234.07426473  -0.0004940373  0.000695  0.000695  0.001655  0.000092
               *** Restarting incremental Fock matrix formation ***
  6   -234.07426749  -0.0000027632  0.000257  0.000863  0.000959  0.000055
  7   -234.07426874  -0.0000012450  0.000170  0.000214  0.000521  0.000016
  8   -234.07427009  -0.0000013558  0.000045  0.000111  0.000132  0.000007
  9   -234.07427009   0.0000000032  0.000048  0.000083  0.000088  0.000003
 10   -234.07427014  -0.0000000531  0.000011  0.000040  0.000022  0.000001
 11   -234.07427014   0.0000000021  0.000008  0.000015  0.000014  0.000001
                  ***Gradient check signals convergence***
              ***Rediagonalizing the Fockian in SOSCF/NRSCF***

               *****************************************************
               *                     SUCCESS                       *
               *           SCF CONVERGED AFTER  12 CYCLES          *
               *****************************************************

Old exchange energy                            =     -8.631184465 Eh
New exchange energy                            =     -8.631208830 Eh
Exchange energy change after final integration =     -0.000024365 Eh
Total energy after final integration           =   -234.074294508 Eh
Final COS-X integration done in                =     5.544 sec

----------------
TOTAL SCF ENERGY
----------------

Total Energy       :         -234.07429451 Eh           -6369.48537 eV

Components:
Nuclear Repulsion  :          226.34663461 Eh            6159.20506 eV
Electronic Energy  :         -460.42092912 Eh          -12528.69043 eV
One Electron Energy:         -761.99491526 Eh          -20734.93579 eV
Two Electron Energy:          301.57398614 Eh            8206.24536 eV
Max COSX asymmetry :            0.00000282 Eh               0.00008 eV

Virial components:
Potential Energy   :         -465.72331732 Eh          -12672.97575 eV
Kinetic Energy     :          231.64902281 Eh            6303.49037 eV
Virial Ratio       :            2.01046960


DFT components:
N(Alpha)           :       23.000036586214 electrons
N(Beta)            :       23.000036586214 electrons
N(Total)           :       46.000073172428 electrons
E(X)               :      -25.783366604805 Eh       
E(C)               :       -1.489586843051 Eh       
E(XC)              :      -27.272953447856 Eh       
DFET-embed. en.    :        0.000000000000 Eh       

---------------
SCF CONVERGENCE
---------------

  Last Energy change         ...   -4.1105e-09  Tolerance :   1.0000e-08
  Last MAX-Density change    ...    1.3323e-15  Tolerance :   1.0000e-07
  Last RMS-Density change    ...    4.1465e-17  Tolerance :   5.0000e-09
  Last Orbital Gradient      ...    1.6178e-06  Tolerance :   1.0000e-05
  Last Orbital Rotation      ...    2.4952e-06  Tolerance :   1.0000e-05

             **** THE GBW FILE WAS UPDATED (TS_5ZPuRE_ll_ad_2-3_4-5_conf299_opt_orca.gbw) ****
             **** DENSITY TS_5ZPuRE_ll_ad_2-3_4-5_conf299_opt_orca.scfp WAS UPDATED ****
             **** ENERGY FILE WAS UPDATED (TS_5ZPuRE_ll_ad_2-3_4-5_conf299_opt_orca.en.tmp) ****
             **** THE GBW FILE WAS UPDATED (TS_5ZPuRE_ll_ad_2-3_4-5_conf299_opt_orca.gbw) ****
             **** DENSITY TS_5ZPuRE_ll_ad_2-3_4-5_conf299_opt_orca.scfp WAS UPDATED ****
----------------
ORBITAL ENERGIES
----------------

  NO   OCC          E(Eh)            E(eV) 
   0   2.0000     -10.235602      -278.5249 
   1   2.0000     -10.235477      -278.5215 
   2   2.0000     -10.226388      -278.2742 
   3   2.0000     -10.225732      -278.2563 
   4   2.0000     -10.223875      -278.2058 
   5   2.0000     -10.223503      -278.1957 
   6   2.0000      -0.830273       -22.5929 
   7   2.0000      -0.764601       -20.8059 
   8   2.0000      -0.737880       -20.0787 
   9   2.0000      -0.636126       -17.3099 
  10   2.0000      -0.590505       -16.0685 
  11   2.0000      -0.531939       -14.4748 
  12   2.0000      -0.509903       -13.8752 
  13   2.0000      -0.481267       -13.0959 
  14   2.0000      -0.446785       -12.1576 
  15   2.0000      -0.422939       -11.5088 
  16   2.0000      -0.421298       -11.4641 
  17   2.0000      -0.376591       -10.2476 
  18   2.0000      -0.366008        -9.9596 
  19   2.0000      -0.360011        -9.7964 
  20   2.0000      -0.351675        -9.5696 
  21   2.0000      -0.242044        -6.5864 
  22   2.0000      -0.239572        -6.5191 
  23   0.0000      -0.017240        -0.4691 
  24   0.0000       0.023526         0.6402 
  25   0.0000       0.073357         1.9962 
  26   0.0000       0.085992         2.3400 
  27   0.0000       0.110027         2.9940 
  28   0.0000       0.120373         3.2755 
  29   0.0000       0.125475         3.4143 
  30   0.0000       0.131783         3.5860 
  31   0.0000       0.149738         4.0746 
  32   0.0000       0.167581         4.5601 
  33   0.0000       0.175942         4.7876 
  34   0.0000       0.205966         5.6046 
  35   0.0000       0.231647         6.3034 
  36   0.0000       0.294274         8.0076 
  37   0.0000       0.327640         8.9155 
  38   0.0000       0.334932         9.1140 
  39   0.0000       0.382313        10.4033 
  40   0.0000       0.408136        11.1059 
  41   0.0000       0.416362        11.3298 
  42   0.0000       0.436972        11.8906 
  43   0.0000       0.472677        12.8622 
  44   0.0000       0.483131        13.1467 
  45   0.0000       0.485625        13.2145 
  46   0.0000       0.495375        13.4798 
  47   0.0000       0.554689        15.0939 
  48   0.0000       0.562569        15.3083 
  49   0.0000       0.566131        15.4052 
  50   0.0000       0.582382        15.8474 
  51   0.0000       0.627894        17.0859 
  52   0.0000       0.666434        18.1346 
  53   0.0000       0.675934        18.3931 
  54   0.0000       0.680084        18.5060 
  55   0.0000       0.688115        18.7246 
  56   0.0000       0.689851        18.7718 
  57   0.0000       0.702123        19.1057 
  58   0.0000       0.712158        19.3788 
  59   0.0000       0.722327        19.6555 
  60   0.0000       0.736853        20.0508 
  61   0.0000       0.737616        20.0715 
  62   0.0000       0.749415        20.3926 
  63   0.0000       0.755709        20.5639 
  64   0.0000       0.796498        21.6738 
  65   0.0000       0.829128        22.5617 
  66   0.0000       0.839103        22.8332 
  67   0.0000       0.899038        24.4641 
  68   0.0000       0.924748        25.1637 
  69   0.0000       0.972075        26.4515 
  70   0.0000       0.997197        27.1351 
  71   0.0000       1.059059        28.8184 
  72   0.0000       1.111017        30.2323 
  73   0.0000       1.217658        33.1342 
  74   0.0000       1.252793        34.0902 
  75   0.0000       1.274510        34.6812 
  76   0.0000       1.290160        35.1070 
  77   0.0000       1.324543        36.0426 
  78   0.0000       1.351364        36.7725 
  79   0.0000       1.370332        37.2886 
  80   0.0000       1.454092        39.5679 
  81   0.0000       1.533163        41.7195 
  82   0.0000       1.631881        44.4057 
  83   0.0000       1.639221        44.6055 
  84   0.0000       1.646969        44.8163 
  85   0.0000       1.677254        45.6404 
  86   0.0000       1.695227        46.1295 
  87   0.0000       1.720549        46.8185 
  88   0.0000       1.742081        47.4044 
  89   0.0000       1.745327        47.4928 
  90   0.0000       1.792899        48.7873 
  91   0.0000       1.801255        49.0146 
  92   0.0000       1.802659        49.0528 
  93   0.0000       1.818282        49.4780 
  94   0.0000       1.823534        49.6209 
  95   0.0000       1.825955        49.6868 
  96   0.0000       1.884560        51.2815 
  97   0.0000       1.899416        51.6857 
  98   0.0000       1.915298        52.1179 
  99   0.0000       1.922708        52.3196 
 100   0.0000       1.986817        54.0640 
 101   0.0000       1.998017        54.3688 
 102   0.0000       2.008885        54.6645 
 103   0.0000       2.069220        56.3063 
 104   0.0000       2.097260        57.0694 
 105   0.0000       2.101800        57.1929 
 106   0.0000       2.191103        59.6229 
 107   0.0000       2.209103        60.1127 
 108   0.0000       2.216426        60.3120 
 109   0.0000       2.252241        61.2866 
 110   0.0000       2.270421        61.7813 
 111   0.0000       2.310464        62.8709 
 112   0.0000       2.407591        65.5139 
 113   0.0000       2.408502        65.5387 
 114   0.0000       2.412903        65.6584 
 115   0.0000       2.424208        65.9661 
 116   0.0000       2.465405        67.0871 
 117   0.0000       2.484500        67.6067 
 118   0.0000       2.529113        68.8207 
 119   0.0000       2.643958        71.9457 
 120   0.0000       2.713048        73.8258 
 121   0.0000       2.718243        73.9671 
 122   0.0000       2.762794        75.1794 
 123   0.0000       2.799288        76.1725 
 124   0.0000       2.836269        77.1788 
 125   0.0000       2.862115        77.8821 
 126   0.0000       2.869654        78.0872 
 127   0.0000       2.955513        80.4236 
 128   0.0000       2.957815        80.4862 
 129   0.0000       3.137675        85.3805 
 130   0.0000       3.146526        85.6213 
 131   0.0000       3.203560        87.1733 
 132   0.0000       3.346200        91.0547 
 133   0.0000       3.506158        95.4074 

                    ********************************
                    * MULLIKEN POPULATION ANALYSIS *
                    ********************************

-----------------------
MULLIKEN ATOMIC CHARGES
-----------------------
   0 C :   -0.071845
   1 C :   -0.072950
   2 C :   -0.043399
   3 C :   -0.096516
   4 C :   -0.097317
   5 C :   -0.044111
   6 H :    0.017280
   7 H :    0.017285
   8 H :    0.047124
   9 H :    0.050559
  10 H :    0.045691
  11 H :    0.052308
  12 H :    0.045174
  13 H :    0.052732
  14 H :    0.047296
  15 H :    0.050688
Sum of atomic charges:   -0.0000000

--------------------------------
MULLIKEN REDUCED ORBITAL CHARGES
--------------------------------
  0 C s       :     3.139785  s :     3.139785
      pz      :     0.988639  p :     2.895341
      px      :     0.976696
      py      :     0.930006
      dz2     :     0.003229  d :     0.036719
      dxz     :     0.005772
      dyz     :     0.006605
      dx2y2   :     0.010848
      dxy     :     0.010265
  1 C s       :     3.140816  s :     3.140816
      pz      :     1.014161  p :     2.895394
      px      :     0.955105
      py      :     0.926128
      dz2     :     0.003782  d :     0.036740
      dxz     :     0.007366
      dyz     :     0.004499
      dx2y2   :     0.009904
      dxy     :     0.011189
  2 C s       :     3.083204  s :     3.083204
      pz      :     0.991128  p :     2.931606
      px      :     0.970259
      py      :     0.970218
      dz2     :     0.003097  d :     0.028589
      dxz     :     0.003685
      dyz     :     0.006480
      dx2y2   :     0.008607
      dxy     :     0.006720
  3 C s       :     3.100384  s :     3.100384
      pz      :     0.992826  p :     2.967480
      px      :     0.994618
      py      :     0.980036
      dz2     :     0.002392  d :     0.028652
      dxz     :     0.008128
      dyz     :     0.004047
      dx2y2   :     0.005543
      dxy     :     0.008542
  4 C s       :     3.100147  s :     3.100147
      pz      :     1.004871  p :     2.968522
      px      :     0.985117
      py      :     0.978534
      dz2     :     0.004054  d :     0.028649
      dxz     :     0.007579
      dyz     :     0.002910
      dx2y2   :     0.005273
      dxy     :     0.008833
  5 C s       :     3.083460  s :     3.083460
      pz      :     0.985484  p :     2.932056
      px      :     0.970551
      py      :     0.976020
      dz2     :     0.002680  d :     0.028595
      dxz     :     0.003231
      dyz     :     0.008045
      dx2y2   :     0.008754
      dxy     :     0.005886
  6 H s       :     0.958630  s :     0.958630
      pz      :     0.008362  p :     0.024090
      px      :     0.005680
      py      :     0.010048
  7 H s       :     0.958627  s :     0.958627
      pz      :     0.005936  p :     0.024088
      px      :     0.006421
      py      :     0.011732
  8 H s       :     0.928464  s :     0.928464
      pz      :     0.004960  p :     0.024412
      px      :     0.015007
      py      :     0.004445
  9 H s       :     0.924184  s :     0.924184
      pz      :     0.007394  p :     0.025257
      px      :     0.007031
      py      :     0.010833
 10 H s       :     0.929354  s :     0.929354
      pz      :     0.008845  p :     0.024955
      px      :     0.006303
      py      :     0.009806
 11 H s       :     0.923055  s :     0.923055
      pz      :     0.007489  p :     0.024637
      px      :     0.008171
      py      :     0.008977
 12 H s       :     0.929913  s :     0.929913
      pz      :     0.005829  p :     0.024913
      px      :     0.007689
      py      :     0.011395
 13 H s       :     0.922586  s :     0.922586
      pz      :     0.011182  p :     0.024682
      px      :     0.005946
      py      :     0.007553
 14 H s       :     0.928308  s :     0.928308
      pz      :     0.006350  p :     0.024396
      px      :     0.013684
      py      :     0.004362
 15 H s       :     0.924044  s :     0.924044
      pz      :     0.010199  p :     0.025268
      px      :     0.005430
      py      :     0.009638


                     *******************************
                     * LOEWDIN POPULATION ANALYSIS *
                     *******************************

----------------------
LOEWDIN ATOMIC CHARGES
----------------------
   0 C :   -0.061537
   1 C :   -0.061333
   2 C :   -0.016409
   3 C :   -0.056622
   4 C :   -0.057426
   5 C :   -0.016596
   6 H :    0.027803
   7 H :    0.027808
   8 H :    0.027220
   9 H :    0.026365
  10 H :    0.026786
  11 H :    0.026727
  12 H :    0.026545
  13 H :    0.026912
  14 H :    0.027281
  15 H :    0.026476

-------------------------------
LOEWDIN REDUCED ORBITAL CHARGES
-------------------------------
  0 C s       :     2.858955  s :     2.858955
      pz      :     1.003867  p :     3.107088
      px      :     1.051731
      py      :     1.051489
      dz2     :     0.008249  d :     0.095494
      dxz     :     0.013609
      dyz     :     0.015576
      dx2y2   :     0.030077
      dxy     :     0.027984
  1 C s       :     2.858965  s :     2.858965
      pz      :     1.010228  p :     3.106840
      px      :     1.050702
      py      :     1.045909
      dz2     :     0.008689  d :     0.095528
      dxz     :     0.018279
      dyz     :     0.010436
      dx2y2   :     0.027570
      dxy     :     0.030554
  2 C s       :     2.880193  s :     2.880193
      pz      :     0.974754  p :     3.063876
      px      :     1.057631
      py      :     1.031491
      dz2     :     0.006964  d :     0.072340
      dxz     :     0.009097
      dyz     :     0.015096
      dx2y2   :     0.022862
      dxy     :     0.018320
  3 C s       :     2.882181  s :     2.882181
      pz      :     1.011447  p :     3.101760
      px      :     1.073590
      py      :     1.016723
      dz2     :     0.005570  d :     0.072680
      dxz     :     0.020794
      dyz     :     0.009542
      dx2y2   :     0.015112
      dxy     :     0.021662
  4 C s       :     2.882050  s :     2.882050
      pz      :     1.022646  p :     3.102685
      px      :     1.062781
      py      :     1.017258
      dz2     :     0.010627  d :     0.072691
      dxz     :     0.018540
      dyz     :     0.007338
      dx2y2   :     0.014839
      dxy     :     0.021347
  5 C s       :     2.880207  s :     2.880207
      pz      :     1.001199  p :     3.064032
      px      :     1.022524
      py      :     1.040309
      dz2     :     0.007157  d :     0.072357
      dxz     :     0.008042
      dyz     :     0.018869
      dx2y2   :     0.022450
      dxy     :     0.015838
  6 H s       :     0.902337  s :     0.902337
      pz      :     0.024642  p :     0.069860
      px      :     0.017394
      py      :     0.027823
  7 H s       :     0.902313  s :     0.902313
      pz      :     0.018519  p :     0.069880
      px      :     0.019142
      py      :     0.032219
  8 H s       :     0.901009  s :     0.901009
      pz      :     0.015613  p :     0.071771
      px      :     0.042486
      py      :     0.013673
  9 H s       :     0.899599  s :     0.899599
      pz      :     0.022485  p :     0.074036
      px      :     0.020491
      py      :     0.031060
 10 H s       :     0.900253  s :     0.900253
      pz      :     0.026505  p :     0.072961
      px      :     0.017473
      py      :     0.028983
 11 H s       :     0.900251  s :     0.900251
      pz      :     0.023605  p :     0.073022
      px      :     0.022658
      py      :     0.026759
 12 H s       :     0.900606  s :     0.900606
      pz      :     0.017853  p :     0.072849
      px      :     0.021728
      py      :     0.033269
 13 H s       :     0.899936  s :     0.899936
      pz      :     0.033685  p :     0.073152
      px      :     0.016814
      py      :     0.022653
 14 H s       :     0.900971  s :     0.900971
      pz      :     0.019214  p :     0.071748
      px      :     0.039287
      py      :     0.013247
 15 H s       :     0.899451  s :     0.899451
      pz      :     0.030788  p :     0.074073
      px      :     0.015791
      py      :     0.027494


                      *****************************
                      * MAYER POPULATION ANALYSIS *
                      *****************************

  NA   - Mulliken gross atomic population
  ZA   - Total nuclear charge
  QA   - Mulliken gross atomic charge
  VA   - Mayer's total valence
  BVA  - Mayer's bonded valence
  FA   - Mayer's free valence

  ATOM       NA         ZA         QA         VA         BVA        FA
  0 C      6.0718     6.0000    -0.0718     4.0247     4.0247    -0.0000
  1 C      6.0730     6.0000    -0.0730     4.0264     4.0264    -0.0000
  2 C      6.0434     6.0000    -0.0434     3.9920     3.9920     0.0000
  3 C      6.0965     6.0000    -0.0965     4.0605     4.0605    -0.0000
  4 C      6.0973     6.0000    -0.0973     4.0604     4.0604     0.0000
  5 C      6.0441     6.0000    -0.0441     3.9924     3.9924    -0.0000
  6 H      0.9827     1.0000     0.0173     0.9810     0.9810    -0.0000
  7 H      0.9827     1.0000     0.0173     0.9809     0.9809     0.0000
  8 H      0.9529     1.0000     0.0471     0.9755     0.9755    -0.0000
  9 H      0.9494     1.0000     0.0506     0.9750     0.9750    -0.0000
 10 H      0.9543     1.0000     0.0457     0.9723     0.9723    -0.0000
 11 H      0.9477     1.0000     0.0523     0.9786     0.9786    -0.0000
 12 H      0.9548     1.0000     0.0452     0.9724     0.9724    -0.0000
 13 H      0.9473     1.0000     0.0527     0.9783     0.9783     0.0000
 14 H      0.9527     1.0000     0.0473     0.9754     0.9754    -0.0000
 15 H      0.9493     1.0000     0.0507     0.9750     0.9750    -0.0000

  Mayer bond orders larger than 0.100000
B(  0-C ,  1-C ) :   1.3020 B(  0-C ,  5-C ) :   1.6610 B(  0-C ,  6-H ) :   0.9742 
B(  1-C ,  2-C ) :   1.6609 B(  1-C ,  7-H ) :   0.9743 B(  2-C ,  3-C ) :   0.3315 
B(  2-C ,  5-C ) :   0.1344 B(  2-C ,  8-H ) :   0.9529 B(  2-C ,  9-H ) :   0.9341 
B(  3-C ,  4-C ) :   1.7469 B(  3-C , 10-H ) :   0.9520 B(  3-C , 11-H ) :   0.9519 
B(  4-C ,  5-C ) :   0.3315 B(  4-C , 12-H ) :   0.9524 B(  4-C , 13-H ) :   0.9513 
B(  5-C , 14-H ) :   0.9530 B(  5-C , 15-H ) :   0.9338 


------------------
HIRSHFELD ANALYSIS
------------------

Total integrated alpha density =     23.000036586
Total integrated beta density  =     23.000036586

  ATOM     CHARGE      SPIN    
   0 C   -0.049133    0.000000
   1 C   -0.048918    0.000000
   2 C   -0.043235    0.000000
   3 C   -0.064035    0.000000
   4 C   -0.064305    0.000000
   5 C   -0.043305    0.000000
   6 H    0.030429    0.000000
   7 H    0.030528    0.000000
   8 H    0.034582    0.000000
   9 H    0.033348    0.000000
  10 H    0.030025    0.000000
  11 H    0.027995    0.000000
  12 H    0.029909    0.000000
  13 H    0.028061    0.000000
  14 H    0.034586    0.000000
  15 H    0.033394    0.000000

  TOTAL  -0.000073    0.000000

-------
TIMINGS
-------

Total SCF time: 0 days 0 hours 0 min 40 sec 

Total time                  ....      40.739 sec
Sum of individual times     ....      40.598 sec  ( 99.7%)

Fock matrix formation       ....      38.547 sec  ( 94.6%)
  Split-RI-J                ....       2.554 sec  (  6.6% of F)
  Chain of spheres X        ....      29.130 sec  ( 75.6% of F)
  XC integration            ....       6.858 sec  ( 17.8% of F)
    Basis function eval.    ....       2.565 sec  ( 37.4% of XC)
    Density eval.           ....       1.803 sec  ( 26.3% of XC)
    XC-Functional eval.     ....       0.506 sec  (  7.4% of XC)
    XC-Potential eval.      ....       1.725 sec  ( 25.2% of XC)
Diagonalization             ....       0.018 sec  (  0.0%)
Density matrix formation    ....       0.003 sec  (  0.0%)
Population analysis         ....       0.331 sec  (  0.8%)
Initial guess               ....       0.270 sec  (  0.7%)
Orbital Transformation      ....       0.000 sec  (  0.0%)
Orbital Orthonormalization  ....       0.000 sec  (  0.0%)
DIIS solution               ....       0.005 sec  (  0.0%)
SOSCF solution              ....       0.013 sec  (  0.0%)
Grid generation             ....       1.409 sec  (  3.5%)

Maximum memory used throughout the entire SCF-calculation: 62.2 MB


-------------------------------------------------------------------------------
                          DFT DISPERSION CORRECTION                            
                                                                               
                              DFTD3 V3.1  Rev 1                                
                          USING Becke-Johnson damping                          
-------------------------------------------------------------------------------
The PBE0 functional is recognized
Active option DFTDOPT                   ...         4   

molecular C6(AA) [au] = 2280.962953 


            DFT-D V3
 parameters
 s6 scaling factor         :     1.0000 
 a1 scaling factor         :     0.4145 
 s8 scaling factor         :     1.2177 
 a2 scaling factor         :     4.8593 
 ad hoc parameters k1-k3   :    16.0000     1.3333    -4.0000 

 Edisp/kcal,au: -8.301057476585  -0.013228575718 
 E6   /kcal   :  -5.291098305 
 E8   /kcal   :  -3.009959172 
 % E8         :  36.259948573 

-------------------------   ----------------
Dispersion correction           -0.013228576
-------------------------   ----------------


-------------------------   --------------------
FINAL SINGLE POINT ENERGY      -234.087523083905
-------------------------   --------------------

------------------------------------------------------------------------------
                         ORCA SCF GRADIENT CALCULATION
------------------------------------------------------------------------------

 ... reading COSX grid (gridx3)
Gradient of the Kohn-Sham DFT energy:
Kohn-Sham wavefunction type      ... RKS
Hartree-Fock exchange scaling    ...    0.250
Number of operators              ...    1
Number of atoms                  ...   16
Basis set dimensions             ...  134
Integral neglect threshold       ... 2.5e-11
Integral primitive cutoff        ... 2.5e-12
SHARK Integral package           ... ON

Nuc. rep. gradient       (SHARK) ... done (  0.0 sec)
HCore & Overlap gradient (SHARK) ... done (  0.1 sec)
RI-J gradient            (SHARK) ... done (  0.7 sec)
COSX-gradient                    ... done (  7.0 sec)
Exchange-correlation gradient    ... done
Dispersion correction            ... done

------------------
CARTESIAN GRADIENT
------------------

   1   C   :   -0.007744943    0.008001160    0.005010497
   2   C   :    0.010696515    0.005928129   -0.000539354
   3   C   :   -0.002771606    0.001011546    0.000196315
   4   C   :   -0.005617213   -0.000217336    0.001942168
   5   C   :    0.005570856   -0.001301808   -0.001312744
   6   C   :    0.002618124    0.000581734   -0.001225368
   7   H   :    0.004135812    0.006356264   -0.005119879
   8   H   :   -0.005085908    0.007360277   -0.002515856
   9   H   :   -0.010919727    0.000917592    0.002189957
  10   H   :    0.005663119   -0.009236428    0.005380385
  11   H   :   -0.005702222   -0.008865261    0.005422729
  12   H   :   -0.007273938    0.005123099   -0.006161902
  13   H   :    0.005830724   -0.010011233    0.002233900
  14   H   :    0.003771896    0.003830521   -0.009397768
  15   H   :    0.010266458   -0.001262082   -0.004026601
  16   H   :   -0.003489372   -0.008207882    0.008063245

Difference to translation invariance:
           :   -0.0000514250    0.0000082920    0.0001397240

Difference to rotation invariance:
           :    0.0000495772    0.0006385356   -0.0002186611

Norm of the cartesian gradient     ...    0.0401167861
RMS gradient                       ...    0.0057903593
MAX gradient                       ...    0.0109197265

-------
TIMINGS
-------

Total SCF gradient time            ...       12.330 sec

One electron gradient       ....       0.147 sec  (  1.2%)
RI-J Coulomb gradient       ....       0.667 sec  (  5.4%)
COSX gradient               ....       7.033 sec  ( 57.0%)
XC gradient                 ....       4.137 sec  ( 33.6%)

Maximum memory used throughout the entire SCFGRAD-calculation: 49.7 MB
------------------------------------------------------------------------------
                         ORCA GEOMETRY RELAXATION STEP
------------------------------------------------------------------------------

Reading the OPT-File                    .... done
Getting information on internals        .... done
Copying old internal coords+grads       .... done
Making the new internal coordinates     .... (new redundants).... done
Validating the new internal coordinates .... (new redundants).... done
Calculating the B-matrix                .... done
Calculating the G,G- and P matrices     .... done
Transforming gradient to internals      .... done
Projecting the internal gradient        .... done
Number of atoms                         ....  16
Number of internal coordinates          .... 165
Current Energy                          ....  -234.087523084 Eh
Current gradient norm                   ....     0.040116786 Eh/bohr
Maximum allowed component of the step   ....  0.300
Current trust radius                    ....  0.300
Evaluating the initial hessian          ....  (Almloef) done
Projecting the Hessian                  .... done
Forming the augmented Hessian           .... done
Diagonalizing the augmented Hessian     .... done
Last element of RFO vector              ....  0.989018432
Lowest eigenvalues of augmented Hessian:
 -0.004570020  0.010379521  0.017785673  0.023913559  0.024011276
Length of the computed step             ....  0.149433237
The final length of the internal step   ....  0.149433237
Converting the step to cartesian space:
 Initial RMS(Int)=    0.0116333618
Transforming coordinates:
 Iter   0:  RMS(Cart)=    0.0198710864 RMS(Int)=    0.0116372565
 Iter   1:  RMS(Cart)=    0.0000388328 RMS(Int)=    0.0000375628
 Iter   2:  RMS(Cart)=    0.0000002627 RMS(Int)=    0.0000002285
 Iter   3:  RMS(Cart)=    0.0000000029 RMS(Int)=    0.0000000023
Imposing constraints:
 Iter   0:  RMS(Cart)=    0.0000029317 RMS(Int)=    0.0000435099
 Iter   1:  RMS(Cart)=    0.0000021669 RMS(Int)=    0.0000321595
 Iter   2:  RMS(Cart)=    0.0000016017 RMS(Int)=    0.0000237701
 Iter   3:  RMS(Cart)=    0.0000011839 RMS(Int)=    0.0000175693
 Iter   4:  RMS(Cart)=    0.0000008750 RMS(Int)=    0.0000129861
 Iter   5:  RMS(Cart)=    0.0000006468 RMS(Int)=    0.0000095985
 Iter   6:  RMS(Cart)=    0.0000004781 RMS(Int)=    0.0000070946
 Iter   7:  RMS(Cart)=    0.0000003534 RMS(Int)=    0.0000052439
 Iter   8:  RMS(Cart)=    0.0000002612 RMS(Int)=    0.0000038760
 Iter   9:  RMS(Cart)=    0.0000001931 RMS(Int)=    0.0000028649
 Iter  10:  RMS(Cart)=    0.0000001427 RMS(Int)=    0.0000021176
 Iter  11:  RMS(Cart)=    0.0000001055 RMS(Int)=    0.0000015652
 Iter  12:  RMS(Cart)=    0.0000000780 RMS(Int)=    0.0000011569
 Iter  13:  RMS(Cart)=    0.0000000576 RMS(Int)=    0.0000008551
 Iter  14:  RMS(Cart)=    0.0000000426 RMS(Int)=    0.0000006321
 Iter  15:  RMS(Cart)=    0.0000000315 RMS(Int)=    0.0000004672
 Iter  16:  RMS(Cart)=    0.0000000233 RMS(Int)=    0.0000003453
 Iter  17:  RMS(Cart)=    0.0000000172 RMS(Int)=    0.0000002553
 Iter  18:  RMS(Cart)=    0.0000000127 RMS(Int)=    0.0000001887
 Iter  19:  RMS(Cart)=    0.0000000094 RMS(Int)=    0.0000001395
 Iter  20:  RMS(Cart)=    0.0000000069 RMS(Int)=    0.0000001031
 Iter  21:  RMS(Cart)=    0.0000000051 RMS(Int)=    0.0000000762
CONVERGED
done
Storing new coordinates                 .... done

                                .--------------------.
          ----------------------|Geometry convergence|-------------------------
          Item                value                   Tolerance       Converged
          ---------------------------------------------------------------------
          RMS gradient        0.0031408324            0.0005000000      NO
          MAX gradient        0.0127537123            0.0020000000      NO
          RMS step            0.0116333618            0.0070000000      NO
          MAX step            0.0474423297            0.0100000000      NO
          ........................................................
          Max(Bonds)      0.0251      Max(Angles)    0.65
          Max(Dihed)        0.70      Max(Improp)    0.00
          ---------------------------------------------------------------------

The optimization has not yet converged - more geometry cycles are needed


    ---------------------------------------------------------------------------
                         Redundant Internal Coordinates
                            (Angstroem and degrees)

        Definition                    Value    dE/dq     Step     New-Value
    ----------------------------------------------------------------------------
     1. B(C   1,C   0)                1.4135 -0.002668  0.0028    1.4163   
     2. B(C   2,C   1)                1.3562 -0.010532  0.0112    1.3673   
     3. B(C   3,C   1)                2.8353 -0.002878  0.0189    2.8543   
     4. B(C   3,C   2)                2.3000  0.003197  0.0000    2.3000 C 
     5. B(C   4,C   0)                2.8384 -0.002953  0.0189    2.8573   
     6. B(C   4,C   3)                1.3534 -0.014088  0.0138    1.3672   
     7. B(C   5,C   0)                1.3562 -0.010431  0.0110    1.3673   
     8. B(C   5,C   4)                2.2977  0.003122  0.0000    2.2977 C 
     9. B(H   6,C   0)                1.0821 -0.009130  0.0129    1.0949   
    10. B(H   7,C   1)                1.0819 -0.009264  0.0131    1.0949   
    11. B(H   8,C   3)                2.7603 -0.001388  0.0073    2.7676   
    12. B(H   8,C   2)                1.0780 -0.009915  0.0153    1.0933   
    13. B(H   9,C   2)                1.0743 -0.011825  0.0166    1.0908   
    14. B(H   9,C   4)                2.9576 -0.004292  0.0017    2.9593   
    15. B(H   9,C   3)                2.4411  0.000342 -0.0021    2.4390   
    16. B(H  10,C   3)                1.0763 -0.011311  0.0160    1.0923   
    17. B(H  10,C   2)                2.4803 -0.001173  0.0113    2.4916   
    18. B(H  10,H   8)                2.7185 -0.000808  0.0113    2.7298   
    19. B(H  10,H   9)                2.3338  0.001505  0.0012    2.3350   
    20. B(H  11,C   1)                2.8385 -0.002930  0.0250    2.8635   
    21. B(H  11,C   3)                1.0759 -0.009840  0.0146    1.0905   
    22. B(H  11,C   2)                2.5130 -0.000609  0.0081    2.5211   
    23. B(H  11,H   8)                2.7048 -0.000263  0.0080    2.7129   
    24. B(H  12,C   4)                1.0764 -0.011208  0.0160    1.0924   
    25. B(H  12,C   5)                2.4883 -0.001239  0.0107    2.4990   
    26. B(H  13,C   0)                2.8454 -0.003083  0.0251    2.8705   
    27. B(H  13,C   4)                1.0758 -0.009835  0.0146    1.0904   
    28. B(H  13,C   5)                2.5012 -0.000602  0.0087    2.5099   
    29. B(H  14,H  13)                2.6815 -0.000089  0.0090    2.6904   
    30. B(H  14,C   5)                1.0780 -0.009852  0.0153    1.0933   
[...]
  50   0.0000       0.577248        15.7077 
  51   0.0000       0.619176        16.8486 
  52   0.0000       0.659539        17.9470 
  53   0.0000       0.668793        18.1988 
  54   0.0000       0.675395        18.3784 
  55   0.0000       0.681212        18.5367 
  56   0.0000       0.683827        18.6079 
  57   0.0000       0.692595        18.8465 
  58   0.0000       0.709003        19.2929 
  59   0.0000       0.711342        19.3566 
  60   0.0000       0.729391        19.8477 
  61   0.0000       0.732364        19.9286 
  62   0.0000       0.743261        20.2252 
  63   0.0000       0.747320        20.3356 
  64   0.0000       0.790067        21.4988 
  65   0.0000       0.811010        22.0687 
  66   0.0000       0.825629        22.4665 
  67   0.0000       0.890603        24.2346 
  68   0.0000       0.913572        24.8596 
  69   0.0000       0.954251        25.9665 
  70   0.0000       0.995607        27.0918 
  71   0.0000       1.043890        28.4057 
  72   0.0000       1.094416        29.7806 
  73   0.0000       1.209896        32.9229 
  74   0.0000       1.262917        34.3657 
  75   0.0000       1.270038        34.5595 
  76   0.0000       1.291026        35.1306 
  77   0.0000       1.309011        35.6200 
  78   0.0000       1.350431        36.7471 
  79   0.0000       1.370660        37.2976 
  80   0.0000       1.437798        39.1245 
  81   0.0000       1.511518        41.1305 
  82   0.0000       1.622857        44.1602 
  83   0.0000       1.627117        44.2761 
  84   0.0000       1.640587        44.6426 
  85   0.0000       1.670102        45.4458 
  86   0.0000       1.684665        45.8421 
  87   0.0000       1.704273        46.3756 
  88   0.0000       1.726734        46.9868 
  89   0.0000       1.739027        47.3213 
  90   0.0000       1.776793        48.3490 
  91   0.0000       1.788972        48.6804 
  92   0.0000       1.789200        48.6866 
  93   0.0000       1.815101        49.3914 
  94   0.0000       1.816852        49.4391 
  95   0.0000       1.822118        49.5824 
  96   0.0000       1.883694        51.2579 
  97   0.0000       1.889721        51.4219 
  98   0.0000       1.900383        51.7121 
  99   0.0000       1.911476        52.0139 
 100   0.0000       1.967120        53.5281 
 101   0.0000       1.987282        54.0767 
 102   0.0000       1.995688        54.3054 
 103   0.0000       2.059454        56.0406 
 104   0.0000       2.083572        56.6969 
 105   0.0000       2.090291        56.8797 
 106   0.0000       2.168018        58.9948 
 107   0.0000       2.178819        59.2887 
 108   0.0000       2.201807        59.9142 
 109   0.0000       2.218791        60.3764 
 110   0.0000       2.228853        60.6502 
 111   0.0000       2.274934        61.9041 
 112   0.0000       2.366973        64.4086 
 113   0.0000       2.368470        64.4493 
 114   0.0000       2.400064        65.3091 
 115   0.0000       2.411868        65.6303 
 116   0.0000       2.452708        66.7416 
 117   0.0000       2.465180        67.0810 
 118   0.0000       2.518587        68.5342 
 119   0.0000       2.623629        71.3926 
 120   0.0000       2.677470        72.8576 
 121   0.0000       2.710145        73.7468 
 122   0.0000       2.729129        74.2634 
 123   0.0000       2.768524        75.3354 
 124   0.0000       2.800401        76.2028 
 125   0.0000       2.830974        77.0347 
 126   0.0000       2.832284        77.0704 
 127   0.0000       2.918400        79.4137 
 128   0.0000       2.919191        79.4352 
 129   0.0000       3.074510        83.6617 
 130   0.0000       3.104208        84.4698 
 131   0.0000       3.167957        86.2045 
 132   0.0000       3.285580        89.4052 
 133   0.0000       3.460089        94.1538 

                    ********************************
                    * MULLIKEN POPULATION ANALYSIS *
                    ********************************

-----------------------
MULLIKEN ATOMIC CHARGES
-----------------------
   0 C :   -0.070916
   1 C :   -0.071867
   2 C :   -0.066046
   3 C :   -0.114242
   4 C :   -0.114906
   5 C :   -0.066468
   6 H :    0.024762
   7 H :    0.024785
   8 H :    0.052940
   9 H :    0.058407
  10 H :    0.054929
  11 H :    0.060939
  12 H :    0.054656
  13 H :    0.061241
  14 H :    0.053101
  15 H :    0.058685
Sum of atomic charges:   -0.0000000

--------------------------------
MULLIKEN REDUCED ORBITAL CHARGES
--------------------------------
  0 C s       :     3.145374  s :     3.145374
      pz      :     0.990663  p :     2.889802
      px      :     0.972228
      py      :     0.926911
      dz2     :     0.003085  d :     0.035741
      dxz     :     0.005616
      dyz     :     0.006279
      dx2y2   :     0.010558
      dxy     :     0.010202
  1 C s       :     3.145762  s :     3.145762
      pz      :     1.014166  p :     2.890356
      px      :     0.952103
      py      :     0.924087
      dz2     :     0.003573  d :     0.035749
      dxz     :     0.007066
      dyz     :     0.004245
      dx2y2   :     0.009808
      dxy     :     0.011057
  2 C s       :     3.108601  s :     3.108601
      pz      :     0.993227  p :     2.930029
      px      :     0.969983
      py      :     0.966819
      dz2     :     0.002798  d :     0.027416
      dxz     :     0.003487
      dyz     :     0.006304
      dx2y2   :     0.008208
      dxy     :     0.006620
  3 C s       :     3.126783  s :     3.126783
      pz      :     0.997071  p :     2.960146
      px      :     0.985195
      py      :     0.977879
      dz2     :     0.002262  d :     0.027314
      dxz     :     0.007872
      dyz     :     0.003892
      dx2y2   :     0.005405
      dxy     :     0.007883
  4 C s       :     3.126838  s :     3.126838
      pz      :     1.003363  p :     2.960738
      px      :     0.981359
      py      :     0.976016
      dz2     :     0.004375  d :     0.027330
      dxz     :     0.006963
      dyz     :     0.002670
      dx2y2   :     0.005242
      dxy     :     0.008080
  5 C s       :     3.109065  s :     3.109065
      pz      :     0.988311  p :     2.929970
      px      :     0.969548
      py      :     0.972111
      dz2     :     0.002587  d :     0.027433
      dxz     :     0.002876
      dyz     :     0.007796
      dx2y2   :     0.008451
      dxy     :     0.005722
  6 H s       :     0.951769  s :     0.951769
      pz      :     0.007864  p :     0.023468
      px      :     0.005725
      py      :     0.009879
  7 H s       :     0.951751  s :     0.951751
      pz      :     0.005623  p :     0.023464
      px      :     0.006236
      py      :     0.011605
  8 H s       :     0.923473  s :     0.923473
      pz      :     0.004836  p :     0.023587
      px      :     0.014590
      py      :     0.004161
  9 H s       :     0.917082  s :     0.917082
      pz      :     0.007214  p :     0.024512
      px      :     0.006737
      py      :     0.010561
 10 H s       :     0.921173  s :     0.921173
      pz      :     0.008240  p :     0.023898
      px      :     0.005922
      py      :     0.009736
 11 H s       :     0.915225  s :     0.915225
      pz      :     0.007552  p :     0.023836
      px      :     0.008003
      py      :     0.008282
 12 H s       :     0.921462  s :     0.921462
      pz      :     0.005368  p :     0.023881
      px      :     0.007273
      py      :     0.011241
 13 H s       :     0.914912  s :     0.914912
      pz      :     0.011344  p :     0.023846
      px      :     0.005504
      py      :     0.006998
 14 H s       :     0.923321  s :     0.923321
      pz      :     0.006085  p :     0.023578
      px      :     0.013421
      py      :     0.004072
 15 H s       :     0.916791  s :     0.916791
      pz      :     0.009866  p :     0.024524
      px      :     0.005294
      py      :     0.009364


                     *******************************
                     * LOEWDIN POPULATION ANALYSIS *
                     *******************************

----------------------
LOEWDIN ATOMIC CHARGES
----------------------
   0 C :   -0.064086
   1 C :   -0.063968
   2 C :   -0.026252
   3 C :   -0.060479
   4 C :   -0.060792
   5 C :   -0.026184
   6 H :    0.030608
   7 H :    0.030617
   8 H :    0.029626
   9 H :    0.030133
  10 H :    0.029839
  11 H :    0.030593
  12 H :    0.029735
  13 H :    0.030732
  14 H :    0.029654
  15 H :    0.030227

-------------------------------
LOEWDIN REDUCED ORBITAL CHARGES
-------------------------------
  0 C s       :     2.866642  s :     2.866642
      pz      :     1.002234  p :     3.104802
      px      :     1.052683
      py      :     1.049885
      dz2     :     0.007783  d :     0.092642
      dxz     :     0.013040
      dyz     :     0.014512
      dx2y2   :     0.029351
      dxy     :     0.027956
  1 C s       :     2.866658  s :     2.866658
      pz      :     1.008709  p :     3.104652
      px      :     1.051362
      py      :     1.044580
      dz2     :     0.008164  d :     0.092658
      dxz     :     0.017238
      dyz     :     0.009471
      dx2y2   :     0.027179
      dxy     :     0.030606
  2 C s       :     2.893935  s :     2.893935
      pz      :     0.978778  p :     3.063576
      px      :     1.055175
      py      :     1.029623
      dz2     :     0.006310  d :     0.068741
      dxz     :     0.008397
      dyz     :     0.014336
      dx2y2   :     0.021654
      dxy     :     0.018044
  3 C s       :     2.897330  s :     2.897330
      pz      :     1.013541  p :     3.094609
      px      :     1.068177
      py      :     1.012891
      dz2     :     0.005109  d :     0.068541
      dxz     :     0.020029
      dyz     :     0.008973
      dx2y2   :     0.014732
      dxy     :     0.019697
  4 C s       :     2.897249  s :     2.897249
      pz      :     1.022585  p :     3.094966
      px      :     1.058742
      py      :     1.013639
      dz2     :     0.011392  d :     0.068577
      dxz     :     0.016778
      dyz     :     0.006623
      dx2y2   :     0.014637
      dxy     :     0.019147
  5 C s       :     2.893889  s :     2.893889
      pz      :     1.004747  p :     3.063512
      px      :     1.020323
      py      :     1.038442
      dz2     :     0.006822  d :     0.068783
      dxz     :     0.007084
      dyz     :     0.018003
      dx2y2   :     0.021692
      dxy     :     0.015182
  6 H s       :     0.901694  s :     0.901694
      pz      :     0.023045  p :     0.067698
      px      :     0.017173
      py      :     0.027480
  7 H s       :     0.901695  s :     0.901695
      pz      :     0.017340  p :     0.067689
      px      :     0.018351
      py      :     0.031998
  8 H s       :     0.900950  s :     0.900950
      pz      :     0.014981  p :     0.069424
      px      :     0.041736
      py      :     0.012707
  9 H s       :     0.898037  s :     0.898037
      pz      :     0.021923  p :     0.071830
      px      :     0.019539
      py      :     0.030368
 10 H s       :     0.900014  s :     0.900014
      pz      :     0.024614  p :     0.070147
      px      :     0.016469
      py      :     0.029064
 11 H s       :     0.898577  s :     0.898577
      pz      :     0.023854  p :     0.070830
      px      :     0.022455
      py      :     0.024521
 12 H s       :     0.900158  s :     0.900158
      pz      :     0.016161  p :     0.070106
      px      :     0.020704
      py      :     0.033242
 13 H s       :     0.898396  s :     0.898396
      pz      :     0.034384  p :     0.070872
      px      :     0.015774
      py      :     0.020714
 14 H s       :     0.900932  s :     0.900932
      pz      :     0.018155  p :     0.069414
      px      :     0.038990
      py      :     0.012269
 15 H s       :     0.897897  s :     0.897897
      pz      :     0.030017  p :     0.071876
      px      :     0.015096
      py      :     0.026764


                      *****************************
                      * MAYER POPULATION ANALYSIS *
                      *****************************

  NA   - Mulliken gross atomic population
  ZA   - Total nuclear charge
  QA   - Mulliken gross atomic charge
  VA   - Mayer's total valence
  BVA  - Mayer's bonded valence
  FA   - Mayer's free valence

  ATOM       NA         ZA         QA         VA         BVA        FA
  0 C      6.0709     6.0000    -0.0709     4.0071     4.0071     0.0000
  1 C      6.0719     6.0000    -0.0719     4.0083     4.0083     0.0000
  2 C      6.0660     6.0000    -0.0660     3.9861     3.9861    -0.0000
  3 C      6.1142     6.0000    -0.1142     4.0396     4.0396    -0.0000
  4 C      6.1149     6.0000    -0.1149     4.0397     4.0397    -0.0000
  5 C      6.0665     6.0000    -0.0665     3.9860     3.9860     0.0000
  6 H      0.9752     1.0000     0.0248     0.9806     0.9806    -0.0000
  7 H      0.9752     1.0000     0.0248     0.9806     0.9806    -0.0000
  8 H      0.9471     1.0000     0.0529     0.9754     0.9754     0.0000
  9 H      0.9416     1.0000     0.0584     0.9743     0.9743    -0.0000
 10 H      0.9451     1.0000     0.0549     0.9718     0.9718     0.0000
 11 H      0.9391     1.0000     0.0609     0.9777     0.9777     0.0000
 12 H      0.9453     1.0000     0.0547     0.9718     0.9718    -0.0000
 13 H      0.9388     1.0000     0.0612     0.9775     0.9775    -0.0000
 14 H      0.9469     1.0000     0.0531     0.9753     0.9753     0.0000
 15 H      0.9413     1.0000     0.0587     0.9742     0.9742     0.0000

  Mayer bond orders larger than 0.100000
B(  0-C ,  1-C ) :   1.3293 B(  0-C ,  5-C ) :   1.6174 B(  0-C ,  6-H ) :   0.9716 
B(  1-C ,  2-C ) :   1.6182 B(  1-C ,  7-H ) :   0.9716 B(  2-C ,  3-C ) :   0.3671 
B(  2-C ,  5-C ) :   0.1335 B(  2-C ,  8-H ) :   0.9537 B(  2-C ,  9-H ) :   0.9328 
B(  3-C ,  4-C ) :   1.6827 B(  3-C , 10-H ) :   0.9540 B(  3-C , 11-H ) :   0.9533 
B(  4-C ,  5-C ) :   0.3677 B(  4-C , 12-H ) :   0.9542 B(  4-C , 13-H ) :   0.9530 
B(  5-C , 14-H ) :   0.9538 B(  5-C , 15-H ) :   0.9326 


------------------
HIRSHFELD ANALYSIS
------------------

Total integrated alpha density =     23.000014717
Total integrated beta density  =     23.000014717

  ATOM     CHARGE      SPIN    
   0 C   -0.050203    0.000000
   1 C   -0.050111    0.000000
   2 C   -0.045379    0.000000
   3 C   -0.060412    0.000000
   4 C   -0.060497    0.000000
   5 C   -0.045323    0.000000
   6 H    0.031002    0.000000
   7 H    0.030993    0.000000
   8 H    0.033805    0.000000
   9 H    0.032227    0.000000
  10 H    0.030347    0.000000
  11 H    0.028529    0.000000
  12 H    0.030287    0.000000
  13 H    0.028599    0.000000
  14 H    0.033839    0.000000
  15 H    0.032267    0.000000

  TOTAL  -0.000029    0.000000

-------
TIMINGS
-------

Total SCF time: 0 days 0 hours 0 min 27 sec 

Total time                  ....      27.089 sec
Sum of individual times     ....      26.958 sec  ( 99.5%)

Fock matrix formation       ....      25.369 sec  ( 93.6%)
  Split-RI-J                ....       1.378 sec  (  5.4% of F)
  Chain of spheres X        ....      20.664 sec  ( 81.5% of F)
  XC integration            ....       3.342 sec  ( 13.2% of F)
    Basis function eval.    ....       1.341 sec  ( 40.1% of XC)
    Density eval.           ....       0.905 sec  ( 27.1% of XC)
    XC-Functional eval.     ....       0.266 sec  (  8.0% of XC)
    XC-Potential eval.      ....       0.688 sec  ( 20.6% of XC)
Diagonalization             ....       0.003 sec  (  0.0%)
Density matrix formation    ....       0.001 sec  (  0.0%)
Population analysis         ....       0.321 sec  (  1.2%)
Initial guess               ....       0.004 sec  (  0.0%)
Orbital Transformation      ....       0.000 sec  (  0.0%)
Orbital Orthonormalization  ....       0.003 sec  (  0.0%)
DIIS solution               ....       0.000 sec  (  0.0%)
SOSCF solution              ....       0.009 sec  (  0.0%)
Grid generation             ....       1.251 sec  (  4.6%)

Maximum memory used throughout the entire SCF-calculation: 62.3 MB


-------------------------------------------------------------------------------
                          DFT DISPERSION CORRECTION                            
                                                                               
                              DFTD3 V3.1  Rev 1                                
                          USING Becke-Johnson damping                          
-------------------------------------------------------------------------------
The PBE0 functional is recognized
Active option DFTDOPT                   ...         4   

molecular C6(AA) [au] = 2283.000018 


            DFT-D V3
 parameters
 s6 scaling factor         :     1.0000 
 a1 scaling factor         :     0.4145 
 s8 scaling factor         :     1.2177 
 a2 scaling factor         :     4.8593 
 ad hoc parameters k1-k3   :    16.0000     1.3333    -4.0000 

 Edisp/kcal,au: -8.183853185639  -0.013041798811 
 E6   /kcal   :  -5.216551752 
 E8   /kcal   :  -2.967301433 
 % E8         :  36.257999331 

-------------------------   ----------------
Dispersion correction           -0.013041799
-------------------------   ----------------


-------------------------   --------------------
FINAL SINGLE POINT ENERGY      -234.090779079233
-------------------------   --------------------

                                *** OPTIMIZATION RUN DONE ***

                            ***************************************
                            *     ORCA property calculations      *
                            ***************************************

                                    ---------------------
                                    Active property flags
                                    ---------------------
   (+) Dipole Moment


------------------------------------------------------------------------------
                       ORCA ELECTRIC PROPERTIES CALCULATION
------------------------------------------------------------------------------

Dipole Moment Calculation                       ... on
Quadrupole Moment Calculation                   ... off
Polarizability Calculation                      ... off
GBWName                                         ... TS_5ZPuRE_ll_ad_2-3_4-5_conf299_opt_orca.gbw
Electron density                                ... TS_5ZPuRE_ll_ad_2-3_4-5_conf299_opt_orca.scfp
The origin for moment calculation is the CENTER OF MASS  = (-1.296757, -1.192487 -0.588602)

-------------
DIPOLE MOMENT
-------------
                                X             Y             Z
Electronic contribution:     -0.42260      -2.13606      -0.70541
Nuclear contribution   :      0.45543       2.27282       0.77019
                        -----------------------------------------
Total Dipole Moment    :      0.03283       0.13676       0.06478
                        -----------------------------------------
Magnitude (a.u.)       :      0.15484
Magnitude (Debye)      :      0.39358



--------------------
Rotational spectrum 
--------------------
 
Rotational constants in cm-1:     0.144628     0.114538     0.075157 
Rotational constants in MHz :  4335.852420  3433.751107  2253.164358 

 Dipole components along the rotational axes: 
x,y,z [a.u.] :     0.154625     0.000246    -0.008236 
x,y,z [Debye]:     0.393026     0.000625    -0.020933 

 

Timings for individual modules:

Sum of individual times         ...      307.723 sec (=   5.129 min)
GTO integral calculation        ...        1.062 sec (=   0.018 min)   0.3 %
SCF iterations                  ...      232.736 sec (=   3.879 min)  75.6 %
SCF Gradient evaluation         ...       73.638 sec (=   1.227 min)  23.9 %
Geometry relaxation             ...        0.288 sec (=   0.005 min)   0.1 %
                             ****ORCA TERMINATED NORMALLY****
TOTAL RUN TIME: 0 days 0 hours 5 minutes 8 seconds 364 msec
