      -----------------------------------------------------------      
     |                   =====================                   |     
     |                           x T B                           |     
     |                   =====================                   |     
     |                         S. Grimme                         |     
     |          Mulliken Center for Theoretical Chemistry        |     
     |                    University of Bonn                     |     
      -----------------------------------------------------------      

   * xtb version 6.6.1 (8d0f1dd) compiled by 'conda@1efc2f54142f' on 2023-08-01

   xtb is free software: you can redistribute it and/or modify it under
   the terms of the GNU Lesser General Public License as published by
   the Free Software Foundation, either version 3 of the License, or
   (at your option) any later version.
   
   xtb is distributed in the hope that it will be useful,
   but WITHOUT ANY WARRANTY; without even the implied warranty of
   MERCHANTABILITY or FITNESS FOR A PARTICULAR PURPOSE.  See the
   GNU Lesser General Public License for more details.
   
   Cite this work as:
   * C. Bannwarth, E. Caldeweyher, S. Ehlert, A. Hansen, P. Pracht,
     J. Seibert, S. Spicher, S. Grimme, WIREs Comput. Mol. Sci., 2020, 11,
     e01493. DOI: 10.1002/wcms.1493
   
   for GFN2-xTB:
   * C. Bannwarth, S. Ehlert and S. Grimme., J. Chem. Theory Comput., 2019,
     15, 1652-1671. DOI: 10.1021/acs.jctc.8b01176
   for GFN1-xTB:
   * S. Grimme, C. Bannwarth, P. Shushkov, J. Chem. Theory Comput., 2017,
     13, 1989-2009. DOI: 10.1021/acs.jctc.7b00118
   for GFN0-xTB:
   * P. Pracht, E. Caldeweyher, S. Ehlert, S. Grimme, ChemRxiv, 2019, preprint.
     DOI: 10.26434/chemrxiv.8326202.v1
   for GFN-FF:
   * S. Spicher and S. Grimme, Angew. Chem. Int. Ed., 2020, 59, 15665-15673.
     DOI: 10.1002/anie.202004239
   
   for ALPB and GBSA implicit solvation:
   * S. Ehlert, M. Stahn, S. Spicher, S. Grimme, J. Chem. Theory Comput.,
     2021, 17, 4250-4261. DOI: 10.1021/acs.jctc.1c00471
   
   for DFT-D4:
   * E. Caldeweyher, C. Bannwarth and S. Grimme, J. Chem. Phys., 2017,
     147, 034112. DOI: 10.1063/1.4993215
   * E. Caldeweyher, S. Ehlert, A. Hansen, H. Neugebauer, S. Spicher,
     C. Bannwarth and S. Grimme, J. Chem. Phys., 2019, 150, 154122.
     DOI: 10.1063/1.5090222
   * E. Caldeweyher, J.-M. Mewes, S. Ehlert and S. Grimme, Phys. Chem. Chem. Phys.
     2020, 22, 8499-8512. DOI: 10.1039/D0CP00502A
   
   for sTDA-xTB:
   * S. Grimme and C. Bannwarth, J. Chem. Phys., 2016, 145, 054103.
     DOI: 10.1063/1.4959605
   
   in the mass-spec context:
   * V. Asgeirsson, C. Bauer and S. Grimme, Chem. Sci., 2017, 8, 4879.
     DOI: 10.1039/c7sc00601b
   * J. Koopman and S. Grimme, ACS Omega 2019, 4, 12, 15120-15133.
     DOI: 10.1021/acsomega.9b02011
   
   for metadynamics refer to:
   * S. Grimme, J. Chem. Theory Comput., 2019, 155, 2847-2862
     DOI: 10.1021/acs.jctc.9b00143
   
   for SPH calculations refer to:
   * S. Spicher and S. Grimme, J. Chem. Theory Comput., 2021, 17, 1701-1714
     DOI: 10.1021/acs.jctc.0c01306
   
   with help from (in alphabetical order)
   P. Atkinson, C. Bannwarth, F. Bohle, G. Brandenburg, E. Caldeweyher
   M. Checinski, S. Dohm, S. Ehlert, S. Ehrlich, I. Gerasimov, C. Hölzer
   A. Katbashev, J. Koopman, C. Lavigne, S. Lehtola, F. März, M. Müller,
   F. Musil, H. Neugebauer, J. Pisarek, C. Plett, P. Pracht, F. Pultar,
   J. Seibert, P. Shushkov, S. Spicher, M. Stahn, M. Steiner, T. Strunk,
   J. Stückrath, T. Rose, and J. Unsleber
   
 * started run on 2025/05/23 at 13:00:52.143     

           -------------------------------------------------
          |                Calculation Setup                |
           -------------------------------------------------

          program call               : /home/avcopan/code/other/saddle-search-practice/.pixi/envs/default/bin/xtb TS_5ZPuRE_ll_ad_2-3_4-5_conf1_opt_xtb.xyz --chrg 0 --uhf 0 --opt --input xcontrol_TS_5ZPuRE_ll_ad_2-3_4-5_conf1_opt_xtb
          coordinate file            : TS_5ZPuRE_ll_ad_2-3_4-5_conf1_opt_xtb.xyz
          omp threads                :                     1

   ID    Z sym.   atoms
    1    6 C      1-6
    2    1 H      7-16
constraining bond 3 4 to    2.3000000 Å, actual value:    2.3000625 Å
constraining bond 5 6 to    2.2977000 Å, actual value:    2.2977312 Å

molecular fragmentation (1/2 indicates fragments):
1112211111222211
# atoms in fragment 1/2:    10     6
 fragment masses (1/2) :       54.09       28.05
CMA distance (Bohr)    :   4.638
constraining FC (au)   :  2.0000

           -------------------------------------------------
          |                 G F N 2 - x T B                 |
           -------------------------------------------------

        Reference                      10.1021/acs.jctc.8b01176
      * Hamiltonian:
        H0-scaling (s, p, d)           1.850000    2.230000    2.230000
        zeta-weighting                 0.500000
      * Dispersion:
        s8                             2.700000
        a1                             0.520000
        a2                             5.000000
        s9                             5.000000
      * Repulsion:
        kExp                           1.500000    1.000000
        rExp                           1.000000
      * Coulomb:
        alpha                          2.000000
        third order                    shell-resolved
        anisotropic                    true
        a3                             3.000000
        a5                             4.000000
        cn-shift                       1.200000
        cn-exp                         4.000000
        max-rad                        5.000000


          ...................................................
          :                      SETUP                      :
          :.................................................:
          :  # basis functions                  34          :
          :  # atomic orbitals                  34          :
          :  # shells                           22          :
          :  # electrons                        34          :
          :  max. iterations                   250          :
          :  Hamiltonian                  GFN2-xTB          :
          :  restarted?                      false          :
          :  GBSA solvation                  false          :
          :  PC potential                    false          :
          :  electronic temp.          300.0000000     K    :
          :  accuracy                    1.0000000          :
          :  -> integral cutoff          0.2500000E+02      :
          :  -> integral neglect         0.1000000E-07      :
          :  -> SCF convergence          0.1000000E-05 Eh   :
          :  -> wf. convergence          0.1000000E-03 e    :
          :  Broyden damping             0.4000000          :
          ...................................................

 iter      E             dE          RMSdq      gap      omega  full diag
   1    -17.8540387 -0.178540E+02  0.418E+00    1.04       0.0  T
   2    -17.8646294 -0.105908E-01  0.257E+00    1.05       1.0  T
   3    -17.6879888  0.176641E+00  0.363E+00    1.46       1.0  T
   4    -17.8796503 -0.191662E+00  0.527E-01    1.01       1.0  T
   5    -17.8774022  0.224815E-02  0.477E-01    0.99       1.0  T
   6    -17.8815269 -0.412468E-02  0.956E-02    1.00       1.0  T
   7    -17.8814937  0.331704E-04  0.890E-02    1.00       1.0  T
   8    -17.8815435 -0.497576E-04  0.554E-02    1.00       1.0  T
   9    -17.8815909 -0.474674E-04  0.129E-02    1.00       1.9  T
  10    -17.8815924 -0.145356E-05  0.678E-03    1.00       3.7  T
  11    -17.8815930 -0.628208E-06  0.279E-03    1.00       9.0  T
  12    -17.8815931 -0.669455E-07  0.719E-04    1.00      34.8  T
  13    -17.8815931 -0.577986E-08  0.344E-04    1.00      72.7  T

   *** convergence criteria satisfied after 13 iterations ***

         #    Occupation            Energy/Eh            Energy/eV
      -------------------------------------------------------------
         1        2.0000           -0.5940372             -16.1646
       ...           ...                  ...                  ...
        11        2.0000           -0.4523527             -12.3091
        12        2.0000           -0.4489762             -12.2173
        13        2.0000           -0.4399793             -11.9724
        14        2.0000           -0.4262759             -11.5996
        15        2.0000           -0.3909969             -10.6396
        16        2.0000           -0.3691995             -10.0464
        17        2.0000           -0.3122157              -8.4958 (HOMO)
        18                         -0.2755530              -7.4982 (LUMO)
        19                         -0.2274131              -6.1882
        20                         -0.2068433              -5.6285
        21                          0.0461530               1.2559
        22                          0.0944817               2.5710
       ...                                ...                  ...
        34                          0.3955218              10.7627
      -------------------------------------------------------------
                  HL-Gap            0.0366627 Eh            0.9976 eV
             Fermi-level           -0.2938844 Eh           -7.9970 eV

 SCC (total)                   0 d,  0 h,  0 min,  0.011 sec
 SCC setup                      ...        0 min,  0.000 sec (  1.253%)
 Dispersion                     ...        0 min,  0.000 sec (  0.929%)
 classical contributions        ...        0 min,  0.000 sec (  0.259%)
 integral evaluation            ...        0 min,  0.001 sec ( 11.760%)
 iterations                     ...        0 min,  0.006 sec ( 55.947%)
 molecular gradient             ...        0 min,  0.003 sec ( 26.494%)
 printout                       ...        0 min,  0.000 sec (  3.190%)

         :::::::::::::::::::::::::::::::::::::::::::::::::::::
         ::                     SUMMARY                     ::
         :::::::::::::::::::::::::::::::::::::::::::::::::::::
         :: total energy             -17.655496710046 Eh    ::
         :: gradient norm              0.233884196678 Eh/a0 ::
         :: HOMO-LUMO gap              0.997642157256 eV    ::
         ::.................................................::
         :: SCC energy               -17.881593073575 Eh    ::
         :: -> isotropic ES            0.004389691361 Eh    ::
         :: -> anisotropic ES          0.007616622857 Eh    ::
         :: -> anisotropic XC          0.022042182196 Eh    ::
         :: -> dispersion             -0.010674054814 Eh    ::
         :: repulsion energy           0.226061938644 Eh    ::
         :: add. restraining           0.000000034888 Eh    ::
         :: total charge               0.000000000000 e     ::
         :::::::::::::::::::::::::::::::::::::::::::::::::::::

      ----------------------------------------------------------- 
     |                   =====================                   |
     |                        A N C O P T                        |
     |                   =====================                   |
     |               Approximate Normal Coordinate               |
     |                Rational Function Optimizer                |
      ----------------------------------------------------------- 

          ...................................................
          :                      SETUP                      :
          :.................................................:
          :   optimization level            normal          :
          :   max. optcycles                   200          :
          :   ANC micro-cycles                  20          :
          :   degrees of freedom                42          :
          :.................................................:
          :   RF solver                   davidson          :
          :   write xtbopt.log                true          :
          :   linear?                        false          :
          :   energy convergence         0.5000000E-05 Eh   :
          :   grad. convergence          0.1000000E-02 Eh/α :
          :   maxmium RF displ.          1.0000000          :
          :   Hlow (freq-cutoff)         0.1000000E-01      :
          :   Hmax (freq-cutoff)         5.0000000          :
          :   S6 in model hess.         20.0000000          :
          ...................................................

generating ANC from model Hessian ...
Using Lindh-Hessian (1995)
 Shifting diagonal of input Hessian by    8.9567734029257148E-003
 Lowest  eigenvalues of input Hessian
    0.000000    0.000000    0.000000    0.000000    0.000000    0.000000
    0.010000    0.010132    0.011412    0.012269    0.012634    0.014802
    0.016099    0.021135    0.021901    0.022079    0.023607    0.024139
 Highest eigenvalues
    1.228798    1.244151    1.255011    1.299205    8.124551    8.155967


........................................................................
.............................. CYCLE    1 ..............................
........................................................................

 iter      E             dE          RMSdq      gap      omega  full diag
   1    -17.8815931 -0.178816E+02  0.236E-05    1.00       0.0  T
   2    -17.8815931  0.443841E-10  0.557E-05    1.00     449.0  T
   3    -17.8815931 -0.489138E-10  0.111E-05    1.00    2246.6  T
     SCC iter.                  ...        0 min,  0.002 sec
     gradient                   ...        0 min,  0.005 sec
 * total energy  :   -17.6554967 Eh     change       -0.1322903E-08 Eh
   gradient norm :     0.2338842 Eh/α   predicted     0.0000000E+00 (-100.00%)
   displ. norm   :     0.5434178 α      lambda       -0.8724376E-01
   maximum displ.:     0.2851086 α      in ANC's #27, #9, #12, ...

........................................................................
.............................. CYCLE    2 ..............................
........................................................................

 iter      E             dE          RMSdq      gap      omega  full diag
   1    -17.9991348 -0.179991E+02  0.631E-01    1.76       0.0  T
   2    -17.9984418  0.693030E-03  0.501E-01    1.75       1.0  T
   3    -17.9980353  0.406479E-03  0.394E-01    1.76       1.0  T
   4    -17.9996809 -0.164559E-02  0.116E-01    1.75       1.0  T
   5    -17.9998654 -0.184488E-03  0.373E-02    1.75       1.0  T
   6    -17.9998825 -0.170810E-04  0.137E-02    1.75       1.8  T
   7    -17.9998844 -0.189197E-05  0.569E-03    1.75       4.4  T
   8    -17.9998845 -0.835181E-07  0.329E-03    1.75       7.6  T
   9    -17.9998846 -0.117517E-06  0.421E-04    1.75      59.4  T
  10    -17.9998846 -0.241435E-09  0.193E-04    1.75     129.5  T
     SCC iter.                  ...        0 min,  0.006 sec
     gradient                   ...        0 min,  0.003 sec
 * total energy  :   -17.7284025 Eh     change       -0.7290583E-01 Eh
   gradient norm :     0.1418946 Eh/α   predicted    -0.5650358E-01 ( -22.50%)
   displ. norm   :     0.6839140 α      lambda       -0.6949013E-01
   maximum displ.:     0.3860672 α      in ANC's #9, #27, #12, ...

........................................................................
.............................. CYCLE    3 ..............................
........................................................................

 iter      E             dE          RMSdq      gap      omega  full diag
   1    -18.1171186 -0.181171E+02  0.800E-01    3.06       0.0  T
   2    -18.1173828 -0.264190E-03  0.510E-01    3.05       1.0  T
   3    -18.1163104  0.107245E-02  0.288E-01    3.06       1.0  T
   4    -18.1175564 -0.124600E-02  0.318E-02    3.05       1.0  T
   5    -18.1175621 -0.570272E-05  0.152E-02    3.05       1.6  T
   6    -18.1175642 -0.215414E-05  0.634E-03    3.05       3.9  T
   7    -18.1175643 -0.946168E-07  0.247E-03    3.05      10.1  T
   8    -18.1175644 -0.543385E-07  0.780E-04    3.05      32.1  T
   9    -18.1175644 -0.571748E-08  0.232E-04    3.05     107.7  T
     SCC iter.                  ...        0 min,  0.004 sec
     gradient                   ...        0 min,  0.003 sec
 * total energy  :   -17.7649146 Eh     change       -0.3651206E-01 Eh
   gradient norm :     0.1385326 Eh/α   predicted    -0.5099665E-01 (  39.67%)
   displ. norm   :     0.6112784 α      lambda       -0.3025467E-01
   maximum displ.:     0.4174170 α      in ANC's #9, #12, #10, ...

........................................................................
.............................. CYCLE    4 ..............................
........................................................................

 iter      E             dE          RMSdq      gap      omega  full diag
   1    -18.0893021 -0.180893E+02  0.622E-01    3.39       0.0  T
   2    -18.0893360 -0.339456E-04  0.372E-01    3.40       1.0  T
   3    -18.0886821  0.653888E-03  0.224E-01    3.39       1.0  T
   4    -18.0894322 -0.750070E-03  0.155E-02    3.40       1.6  T
   5    -18.0894329 -0.680926E-06  0.904E-03    3.40       2.8  T
   6    -18.0894330 -0.123480E-06  0.492E-03    3.40       5.1  T
   7    -18.0894332 -0.208438E-06  0.997E-04    3.40      25.1  T
   8    -18.0894332 -0.162907E-08  0.312E-04    3.40      80.2  T
     SCC iter.                  ...        0 min,  0.003 sec
     gradient                   ...        0 min,  0.003 sec
 * total energy  :   -17.7799853 Eh     change       -0.1507067E-01 Eh
   gradient norm :     0.0765386 Eh/α   predicted    -0.2077982E-01 (  37.88%)
   displ. norm   :     0.4141243 α      lambda       -0.1092576E-01
   maximum displ.:     0.2330859 α      in ANC's #1, #5, #4, ...

........................................................................
.............................. CYCLE    5 ..............................
........................................................................

 iter      E             dE          RMSdq      gap      omega  full diag
   1    -18.1175346 -0.181175E+02  0.358E-01    3.68       0.0  T
   2    -18.1175557 -0.211114E-04  0.210E-01    3.68       1.0  T
   3    -18.1174527  0.103044E-03  0.947E-02    3.68       1.0  T
   4    -18.1175693 -0.116647E-03  0.880E-03    3.68       2.8  T
   5    -18.1175697 -0.367809E-06  0.453E-03    3.68       5.5  T
   6    -18.1175697 -0.969072E-08  0.268E-03    3.68       9.3  T
   7    -18.1175697 -0.369941E-07  0.113E-03    3.68      22.2  T
   8    -18.1175697 -0.109470E-07  0.169E-04    3.68     148.0  T
   9    -18.1175697 -0.677716E-10  0.110E-04    3.68     227.3  T
     SCC iter.                  ...        0 min,  0.005 sec
     gradient                   ...        0 min,  0.003 sec
 * total energy  :   -17.7867476 Eh     change       -0.6762385E-02 Eh
   gradient norm :     0.0527724 Eh/α   predicted    -0.6399753E-02 (  -5.36%)
   displ. norm   :     0.3950522 α      lambda       -0.7523468E-02
   maximum displ.:     0.1662283 α      in ANC's #10, #5, #4, ...

........................................................................
.............................. CYCLE    6 ..............................
........................................................................

 iter      E             dE          RMSdq      gap      omega  full diag
   1    -18.1476413 -0.181476E+02  0.362E-01    4.06       0.0  T
   2    -18.1476544 -0.131148E-04  0.215E-01    4.06       1.0  T
   3    -18.1476507  0.378832E-05  0.237E-02    4.06       1.1  T
   4    -18.1476576 -0.697693E-05  0.106E-02    4.06       2.4  T
   5    -18.1476585 -0.836515E-06  0.421E-03    4.06       5.9  T
   6    -18.1476585 -0.858650E-08  0.112E-03    4.06      22.4  T
   7    -18.1476585 -0.798658E-08  0.531E-04    4.06      47.1  T
   8    -18.1476585 -0.195688E-08  0.154E-04    4.06     161.9  T
     SCC iter.                  ...        0 min,  0.004 sec
     gradient                   ...        0 min,  0.003 sec
 * total energy  :   -17.7900469 Eh     change       -0.3299283E-02 Eh
   gradient norm :     0.0471603 Eh/α   predicted    -0.4348806E-02 (  31.81%)
   displ. norm   :     0.3593869 α      lambda       -0.3491581E-02
   maximum displ.:     0.2368651 α      in ANC's #1, #5, #4, ...

........................................................................
.............................. CYCLE    7 ..............................
........................................................................

 iter      E             dE          RMSdq      gap      omega  full diag
   1    -18.1421153 -0.181421E+02  0.258E-01    4.11       0.0  T
   2    -18.1421311 -0.158475E-04  0.150E-01    4.09       1.0  T
   3    -18.1421099  0.212398E-04  0.457E-02    4.10       1.0  T
   4    -18.1421337 -0.238071E-04  0.910E-03    4.09       2.7  T
   5    -18.1421350 -0.125851E-05  0.297E-03    4.09       8.4  T
   6    -18.1421350 -0.346235E-08  0.123E-03    4.09      20.3  T
   7    -18.1421350 -0.139638E-07  0.332E-04    4.09      75.4  T
   8    -18.1421350 -0.778009E-09  0.112E-04    4.09     222.6  T
     SCC iter.                  ...        0 min,  0.005 sec
     gradient                   ...        0 min,  0.003 sec
 * total energy  :   -17.7920304 Eh     change       -0.1983490E-02 Eh
   gradient norm :     0.0336086 Eh/α   predicted    -0.1971271E-02 (  -0.62%)
   displ. norm   :     0.4330936 α      lambda       -0.2862727E-02
   maximum displ.:     0.2836246 α      in ANC's #1, #4, #5, ...

........................................................................
.............................. CYCLE    8 ..............................
........................................................................

 iter      E             dE          RMSdq      gap      omega  full diag
   1    -18.1312942 -0.181313E+02  0.332E-01    3.96       0.0  T
   2    -18.1313024 -0.822567E-05  0.196E-01    3.94       1.0  T
   3    -18.1312695  0.329735E-04  0.517E-02    3.95       1.0  T
   4    -18.1313070 -0.375318E-04  0.684E-03    3.95       3.7  T
   5    -18.1313073 -0.312347E-06  0.339E-03    3.95       7.4  T
   6    -18.1313073 -0.600009E-08  0.707E-04    3.95      35.4  T
   7    -18.1313073 -0.467849E-08  0.316E-04    3.95      79.2  T
     SCC iter.                  ...        0 min,  0.003 sec
     gradient                   ...        0 min,  0.003 sec
 * total energy  :   -17.7927860 Eh     change       -0.7555713E-03 Eh
   gradient norm :     0.0577498 Eh/α   predicted    -0.1699849E-02 ( 124.98%)
   displ. norm   :     0.2909395 α      lambda       -0.3541711E-02
   maximum displ.:     0.1970332 α      in ANC's #5, #1, #2, ...

........................................................................
.............................. CYCLE    9 ..............................
........................................................................

 iter      E             dE          RMSdq      gap      omega  full diag
   1    -18.1328708 -0.181329E+02  0.244E-01    3.89       0.0  T
   2    -18.1328782 -0.739753E-05  0.139E-01    3.89       1.0  T
   3    -18.1328163  0.618954E-04  0.815E-02    3.89       1.0  T
   4    -18.1328906 -0.743095E-04  0.761E-03    3.89       3.3  T
   5    -18.1328906 -0.108354E-07  0.307E-03    3.89       8.1  T
   6    -18.1328906 -0.180771E-07  0.988E-04    3.89      25.3  T
   7    -18.1328907 -0.110779E-07  0.520E-04    3.89      48.1  T
     SCC iter.                  ...        0 min,  0.005 sec
     gradient                   ...        0 min,  0.005 sec
 * total energy  :   -17.7936965 Eh     change       -0.9105512E-03 Eh
   gradient norm :     0.0414189 Eh/α   predicted    -0.1920750E-02 ( 110.94%)
   displ. norm   :     0.2763975 α      lambda       -0.3471409E-02
   maximum displ.:     0.1773662 α      in ANC's #1, #2, #6, ...

........................................................................
.............................. CYCLE   10 ..............................
........................................................................

 iter      E             dE          RMSdq      gap      omega  full diag
   1    -18.1406352 -0.181406E+02  0.214E-01    3.99       0.0  T
   2    -18.1406502 -0.150479E-04  0.127E-01    4.00       1.0  T
   3    -18.1406199  0.303046E-04  0.513E-02    3.99       1.0  T
   4    -18.1406550 -0.351068E-04  0.950E-03    4.00       2.6  T
   5    -18.1406559 -0.888194E-06  0.312E-03    4.00       8.0  T
   6    -18.1406559 -0.621582E-08  0.957E-04    4.00      26.1  T
   7    -18.1406559 -0.465583E-09  0.483E-04    4.00      51.7  T
     SCC iter.                  ...        0 min,  0.003 sec
     gradient                   ...        0 min,  0.003 sec
 * total energy  :   -17.7951653 Eh     change       -0.1468741E-02 Eh
   gradient norm :     0.0342418 Eh/α   predicted    -0.1868300E-02 (  27.20%)
   displ. norm   :     0.2340399 α      lambda       -0.1499082E-02
   maximum displ.:     0.1281802 α      in ANC's #4, #1, #5, ...

........................................................................
.............................. CYCLE   11 ..............................
........................................................................

 iter      E             dE          RMSdq      gap      omega  full diag
   1    -18.1395422 -0.181395E+02  0.202E-01    4.01       0.0  T
   2    -18.1395488 -0.651120E-05  0.124E-01    4.00       1.0  T
   3    -18.1395092  0.395240E-04  0.690E-02    4.00       1.0  T
   4    -18.1395591 -0.498966E-04  0.481E-03    4.00       5.2  T
   5    -18.1395592 -0.865487E-07  0.213E-03    4.00      11.8  T
   6    -18.1395592 -0.616124E-08  0.601E-04    4.00      41.6  T
   7    -18.1395592 -0.619917E-09  0.272E-04    4.00      91.9  T
     SCC iter.                  ...        0 min,  0.003 sec
     gradient                   ...        0 min,  0.004 sec
 * total energy  :   -17.7958601 Eh     change       -0.6948280E-03 Eh
   gradient norm :     0.0215206 Eh/α   predicted    -0.7906005E-03 (  13.78%)
   displ. norm   :     0.3620799 α      lambda       -0.1504615E-02
   maximum displ.:     0.2612820 α      in ANC's #1, #5, #6, ...

........................................................................
.............................. CYCLE   12 ..............................
........................................................................

 iter      E             dE          RMSdq      gap      omega  full diag
   1    -18.1358925 -0.181359E+02  0.258E-01    3.94       0.0  T
   2    -18.1359110 -0.185064E-04  0.153E-01    3.92       1.0  T
   3    -18.1358227  0.883439E-04  0.940E-02    3.92       1.0  T
   4    -18.1359332 -0.110508E-03  0.677E-03    3.92       3.7  T
   5    -18.1359335 -0.247540E-06  0.356E-03    3.92       7.0  T
   6    -18.1359335  0.992391E-08  0.168E-03    3.92      14.9  T
   7    -18.1359335 -0.308318E-07  0.497E-04    3.92      50.3  T
   8    -18.1359335 -0.128313E-08  0.160E-04    3.92     156.1  T
     SCC iter.                  ...        0 min,  0.004 sec
     gradient                   ...        0 min,  0.004 sec
 * total energy  :   -17.7955208 Eh     change        0.3392987E-03 Eh
   gradient norm :     0.0788262 Eh/α   predicted    -0.8509371E-03 (-350.79%)
   displ. norm   :     0.1852271 α      lambda       -0.2978639E-02
   maximum displ.:     0.1131179 α      in ANC's #4, #2, #12, ...

........................................................................
.............................. CYCLE   13 ..............................
........................................................................

 iter      E             dE          RMSdq      gap      omega  full diag
   1    -18.1436152 -0.181436E+02  0.174E-01    3.85       0.0  T
   2    -18.1436254 -0.102539E-04  0.100E-01    3.84       1.0  T
   3    -18.1435922  0.332129E-04  0.748E-02    3.84       1.0  T
   4    -18.1436435 -0.512790E-04  0.626E-03    3.84       4.0  T
   5    -18.1436435 -0.502511E-07  0.308E-03    3.84       8.1  T
   6    -18.1436435 -0.116965E-07  0.163E-03    3.84      15.3  T
   7    -18.1436436 -0.188617E-07  0.494E-04    3.84      50.6  T
   8    -18.1436436 -0.159582E-08  0.150E-04    3.84     166.2  T
     SCC iter.                  ...        0 min,  0.003 sec
     gradient                   ...        0 min,  0.003 sec
 * total energy  :   -17.7962583 Eh     change       -0.7374509E-03 Eh
   gradient norm :     0.0465262 Eh/α   predicted    -0.1540417E-02 ( 108.88%)
   displ. norm   :     0.2124608 α      lambda       -0.2243031E-02
   maximum displ.:     0.0963175 α      in ANC's #2, #11, #4, ...

........................................................................
.............................. CYCLE   14 ..............................
........................................................................

 iter      E             dE          RMSdq      gap      omega  full diag
   1    -18.1398289 -0.181398E+02  0.203E-01    3.93       0.0  T
   2    -18.1398513 -0.224384E-04  0.124E-01    3.95       1.0  T
   3    -18.1398137  0.375876E-04  0.722E-02    3.95       1.0  T
   4    -18.1398641 -0.504348E-04  0.941E-03    3.95       2.7  T
   5    -18.1398647 -0.548103E-06  0.345E-03    3.95       7.2  T
   6    -18.1398647 -0.241450E-08  0.107E-03    3.95      23.3  T
   7    -18.1398647 -0.651490E-08  0.552E-04    3.95      45.3  T
   8    -18.1398647 -0.283888E-08  0.164E-04    3.95     152.9  T
     SCC iter.                  ...        0 min,  0.004 sec
     gradient                   ...        0 min,  0.004 sec
 * total energy  :   -17.7962984 Eh     change       -0.4015904E-04 Eh
   gradient norm :     0.0494875 Eh/α   predicted    -0.1172144E-02 (2818.76%)
   displ. norm   :     0.1528080 α      lambda       -0.1963610E-02
   maximum displ.:     0.0916489 α      in ANC's #11, #5, #3, ...

........................................................................
.............................. CYCLE   15 ..............................
........................................................................

 iter      E             dE          RMSdq      gap      omega  full diag
   1    -18.1430157 -0.181430E+02  0.164E-01    3.93       0.0  T
   2    -18.1430211 -0.539063E-05  0.964E-02    3.92       1.0  T
   3    -18.1430093  0.117377E-04  0.316E-02    3.93       1.0  T
   4    -18.1430230 -0.136416E-04  0.642E-03    3.92       3.9  T
   5    -18.1430233 -0.300467E-06  0.249E-03    3.92      10.1  T
   6    -18.1430233 -0.264230E-08  0.545E-04    3.92      45.9  T
   7    -18.1430233 -0.145295E-08  0.235E-04    3.92     106.4  T
     SCC iter.                  ...        0 min,  0.003 sec
     gradient                   ...        0 min,  0.003 sec
 * total energy  :   -17.7968142 Eh     change       -0.5158271E-03 Eh
   gradient norm :     0.0264095 Eh/α   predicted    -0.1004731E-02 (  94.78%)
   displ. norm   :     0.2658289 α      lambda       -0.1687242E-02
   maximum displ.:     0.1896352 α      in ANC's #1, #2, #8, ...

........................................................................
.............................. CYCLE   16 ..............................
........................................................................

 iter      E             dE          RMSdq      gap      omega  full diag
   1    -18.1416221 -0.181416E+02  0.186E-01    3.90       0.0  T
   2    -18.1416299 -0.781945E-05  0.118E-01    3.89       1.0  T
   3    -18.1415872  0.426250E-04  0.589E-02    3.88       1.0  T
   4    -18.1416379 -0.506542E-04  0.661E-03    3.88       3.8  T
   5    -18.1416380 -0.790531E-07  0.311E-03    3.88       8.0  T
   6    -18.1416380 -0.133814E-08  0.148E-03    3.88      16.8  T
   7    -18.1416380 -0.291928E-07  0.306E-04    3.88      81.7  T
   8    -18.1416380 -0.548894E-10  0.792E-05    3.88     315.7  T
     SCC iter.                  ...        0 min,  0.003 sec
     gradient                   ...        0 min,  0.004 sec
 * total energy  :   -17.7962522 Eh     change        0.5620700E-03 Eh
   gradient norm :     0.0758659 Eh/α   predicted    -0.9032405E-03 (-260.70%)
   displ. norm   :     0.1294201 α      lambda       -0.2218173E-02
   maximum displ.:     0.0630212 α      in ANC's #11, #1, #2, ...

........................................................................
.............................. CYCLE   17 ..............................
........................................................................

 iter      E             dE          RMSdq      gap      omega  full diag
   1    -18.1413071 -0.181413E+02  0.135E-01    3.89       0.0  T
   2    -18.1413105 -0.336744E-05  0.835E-02    3.89       1.0  T
   3    -18.1412830  0.274394E-04  0.463E-02    3.90       1.0  T
   4    -18.1413159 -0.328724E-04  0.458E-03    3.90       5.5  T
   5    -18.1413160 -0.360819E-07  0.213E-03    3.90      11.8  T
   6    -18.1413160 -0.135176E-07  0.629E-04    3.90      39.7  T
   7    -18.1413160 -0.414326E-08  0.270E-04    3.90      92.7  T
     SCC iter.                  ...        0 min,  0.003 sec
     gradient                   ...        0 min,  0.003 sec
 * total energy  :   -17.7972762 Eh     change       -0.1024034E-02 Eh
   gradient norm :     0.0120131 Eh/α   predicted    -0.1127664E-02 (  10.12%)
   displ. norm   :     0.0946370 α      lambda       -0.4864348E-03
   maximum displ.:     0.0529266 α      in ANC's #4, #14, #21, ...

........................................................................
.............................. CYCLE   18 ..............................
........................................................................

 iter      E             dE          RMSdq      gap      omega  full diag
   1    -18.1444757 -0.181445E+02  0.114E-01    3.89       0.0  T
   2    -18.1444807 -0.498810E-05  0.702E-02    3.90       1.0  T
   3    -18.1444645  0.162175E-04  0.429E-02    3.90       1.0  T
   4    -18.1444858 -0.213502E-04  0.362E-03    3.90       6.9  T
   5    -18.1444859 -0.731714E-07  0.177E-03    3.90      14.1  T
   6    -18.1444859  0.873015E-09  0.806E-04    3.90      31.0  T
   7    -18.1444859 -0.515879E-08  0.276E-04    3.90      90.6  T
     SCC iter.                  ...        0 min,  0.002 sec
     gradient                   ...        0 min,  0.004 sec
 * total energy  :   -17.7972373 Eh     change        0.3892629E-04 Eh
   gradient norm :     0.0144329 Eh/α   predicted    -0.2453941E-03 (-730.41%)
   displ. norm   :     0.1182350 α      lambda       -0.4219746E-03
   maximum displ.:     0.0705590 α      in ANC's #2, #1, #4, ...

........................................................................
.............................. CYCLE   19 ..............................
........................................................................

 iter      E             dE          RMSdq      gap      omega  full diag
   1    -18.1419634 -0.181420E+02  0.731E-02    3.91       0.0  T
   2    -18.1419651 -0.165290E-05  0.444E-02    3.91       1.0  T
   3    -18.1419592  0.593303E-05  0.225E-02    3.91       1.1  T
   4    -18.1419662 -0.702923E-05  0.226E-03    3.91      11.1  T
   5    -18.1419662 -0.270485E-07  0.109E-03    3.91      22.9  T
   6    -18.1419662 -0.102343E-08  0.483E-04    3.91      51.8  T
   7    -18.1419662 -0.396163E-09  0.258E-04    3.91      96.8  T
     SCC iter.                  ...        0 min,  0.003 sec
     gradient                   ...        0 min,  0.003 sec
 * total energy  :   -17.7974770 Eh     change       -0.2397477E-03 Eh
   gradient norm :     0.0077342 Eh/α   predicted    -0.2139362E-03 ( -10.77%)
   displ. norm   :     0.0879674 α      lambda       -0.1247981E-03
   maximum displ.:     0.0590141 α      in ANC's #2, #1, #7, ...

........................................................................
.............................. CYCLE   20 ..............................
........................................................................

 iter      E             dE          RMSdq      gap      omega  full diag
   1    -18.1436524 -0.181437E+02  0.391E-02    3.90       0.0  T
   2    -18.1436532 -0.743390E-06  0.236E-02    3.90       1.1  T
   3    -18.1436516  0.156169E-05  0.140E-02    3.90       1.8  T
   4    -18.1436537 -0.207175E-05  0.143E-03    3.90      17.5  T
   5    -18.1436537 -0.119442E-07  0.533E-04    3.90      46.9  T
   6    -18.1436537 -0.139533E-09  0.230E-04    3.90     108.7  T
     SCC iter.                  ...        0 min,  0.003 sec
     gradient                   ...        0 min,  0.003 sec
 * total energy  :   -17.7975354 Eh     change       -0.5838592E-04 Eh
   gradient norm :     0.0101464 Eh/α   predicted    -0.6288230E-04 (   7.70%)
   displ. norm   :     0.1659110 α      lambda       -0.1487451E-03
   maximum displ.:     0.1111171 α      in ANC's #1, #2, #28, ...
 * RMSD in coord.:     0.9182766 α      energy gain  -0.1420387E+00 Eh

generating ANC from model Hessian ...
Using Lindh-Hessian (1995)
 Shifting diagonal of input Hessian by    8.0361134872616678E-003
 Lowest  eigenvalues of input Hessian
    0.000000    0.000000    0.000000    0.000000    0.000000    0.000000
    0.010000    0.010840    0.010850    0.012523    0.015820    0.021978
    0.022412    0.024437    0.026674    0.030553    0.035159    0.040904
 Highest eigenvalues
    1.652963    1.704651    1.771102    1.966488    8.164888    8.280895


........................................................................
.............................. CYCLE   21 ..............................
........................................................................

 iter      E             dE          RMSdq      gap      omega  full diag
   1    -18.1414494 -0.181414E+02  0.642E-02    3.89       0.0  T
   2    -18.1414498 -0.402629E-06  0.379E-02    3.89       1.0  T
   3    -18.1414478  0.194281E-05  0.126E-02    3.89       2.0  T
   4    -18.1414500 -0.222547E-05  0.127E-03    3.89      19.7  T
   5    -18.1414500 -0.379114E-08  0.599E-04    3.89      41.8  T
   6    -18.1414500 -0.341771E-11  0.300E-04    3.89      83.5  T
     SCC iter.                  ...        0 min,  0.002 sec
     gradient                   ...        0 min,  0.003 sec
 * total energy  :   -17.7976308 Eh     change       -0.9534904E-04 Eh
   gradient norm :     0.0081838 Eh/α   predicted     0.0000000E+00 (-100.00%)
   displ. norm   :     0.0768483 α      lambda       -0.1647937E-03
   maximum displ.:     0.0589844 α      in ANC's #1, #5, #2, ...

........................................................................
.............................. CYCLE   22 ..............................
........................................................................

 iter      E             dE          RMSdq      gap      omega  full diag
   1    -18.1430734 -0.181431E+02  0.440E-02    3.90       0.0  T
   2    -18.1430737 -0.338625E-06  0.267E-02    3.90       1.0  T
   3    -18.1430717  0.203623E-05  0.166E-02    3.90       1.5  T
   4    -18.1430744 -0.272472E-05  0.865E-04    3.90      28.9  T
   5    -18.1430744 -0.166180E-08  0.485E-04    3.90      51.5  T
   6    -18.1430744  0.206878E-09  0.230E-04    3.90     108.9  T
     SCC iter.                  ...        0 min,  0.003 sec
     gradient                   ...        0 min,  0.003 sec
 * total energy  :   -17.7977381 Eh     change       -0.1072943E-03 Eh
   gradient norm :     0.0040776 Eh/α   predicted    -0.8288269E-04 ( -22.75%)
   displ. norm   :     0.0809471 α      lambda       -0.6233247E-04
   maximum displ.:     0.0704395 α      in ANC's #1, #5, #3, ...

........................................................................
.............................. CYCLE   23 ..............................
........................................................................

 iter      E             dE          RMSdq      gap      omega  full diag
   1    -18.1438674 -0.181439E+02  0.339E-02    3.92       0.0  T
   2    -18.1438675 -0.166111E-06  0.205E-02    3.92       1.2  T
   3    -18.1438662  0.138429E-05  0.109E-02    3.92       2.3  T
   4    -18.1438678 -0.165280E-05  0.618E-04    3.92      40.4  T
   5    -18.1438678 -0.244230E-08  0.310E-04    3.92      80.8  T
   6    -18.1438678  0.159691E-09  0.183E-04    3.92     136.5  T
     SCC iter.                  ...        0 min,  0.002 sec
     gradient                   ...        0 min,  0.003 sec
 * total energy  :   -17.7977785 Eh     change       -0.4048210E-04 Eh
   gradient norm :     0.0035599 Eh/α   predicted    -0.3137234E-04 ( -22.50%)
   displ. norm   :     0.0471774 α      lambda       -0.2120943E-04
   maximum displ.:     0.0452894 α      in ANC's #1, #5, #10, ...

........................................................................
.............................. CYCLE   24 ..............................
........................................................................

 iter      E             dE          RMSdq      gap      omega  full diag
   1    -18.1438782 -0.181439E+02  0.134E-02    3.92       0.0  T
   2    -18.1438782 -0.234784E-07  0.811E-03    3.92       3.1  T
   3    -18.1438780  0.194353E-06  0.482E-03    3.92       5.2  T
   4    -18.1438783 -0.246518E-06  0.204E-04    3.92     122.8  T
   5    -18.1438783 -0.179767E-10  0.935E-05    3.92     267.3  T
     SCC iter.                  ...        0 min,  0.002 sec
     gradient                   ...        0 min,  0.004 sec
 * total energy  :   -17.7977954 Eh     change       -0.1688602E-04 Eh
   gradient norm :     0.0010592 Eh/α   predicted    -0.1062993E-04 ( -37.05%)
   displ. norm   :     0.0529188 α      lambda       -0.1259142E-04
   maximum displ.:     0.0516212 α      in ANC's #1, #5, #3, ...

........................................................................
.............................. CYCLE   25 ..............................
........................................................................

 iter      E             dE          RMSdq      gap      omega  full diag
   1    -18.1436575 -0.181437E+02  0.153E-02    3.92       0.0  T
   2    -18.1436576 -0.220859E-07  0.907E-03    3.92       2.8  T
   3    -18.1436574  0.191512E-06  0.454E-03    3.92       5.5  T
   4    -18.1436576 -0.225600E-06  0.264E-04    3.92      94.6  T
   5    -18.1436576 -0.570921E-10  0.129E-04    3.92     193.5  T
     SCC iter.                  ...        0 min,  0.003 sec
     gradient                   ...        0 min,  0.005 sec
 * total energy  :   -17.7978103 Eh     change       -0.1484410E-04 Eh
   gradient norm :     0.0008114 Eh/α   predicted    -0.6305951E-05 ( -57.52%)
   displ. norm   :     0.0408521 α      lambda       -0.7106913E-05
   maximum displ.:     0.0380708 α      in ANC's #1, #5, #3, ...

........................................................................
.............................. CYCLE   26 ..............................
........................................................................

 iter      E             dE          RMSdq      gap      omega  full diag
   1    -18.1435823 -0.181436E+02  0.168E-02    3.92       0.0  T
   2    -18.1435823 -0.179729E-07  0.993E-03    3.92       2.5  T
   3    -18.1435823  0.472806E-07  0.187E-03    3.92      13.4  T
   4    -18.1435823 -0.540851E-07  0.271E-04    3.92      92.2  T
   5    -18.1435823 -0.580261E-09  0.112E-04    3.92     223.6  T
     SCC iter.                  ...        0 min,  0.003 sec
     gradient                   ...        0 min,  0.005 sec
 * total energy  :   -17.7978190 Eh     change       -0.8723555E-05 Eh
   gradient norm :     0.0008849 Eh/α   predicted    -0.3555228E-05 ( -59.25%)
   displ. norm   :     0.0372083 α      lambda       -0.5026097E-05
   maximum displ.:     0.0341050 α      in ANC's #1, #5, #3, ...

........................................................................
.............................. CYCLE   27 ..............................
........................................................................

 iter      E             dE          RMSdq      gap      omega  full diag
   1    -18.1436590 -0.181437E+02  0.156E-02    3.91       0.0  T
   2    -18.1436591 -0.214294E-07  0.915E-03    3.91       2.7  T
   3    -18.1436589  0.178159E-06  0.397E-03    3.91       6.3  T
   4    -18.1436591 -0.204652E-06  0.209E-04    3.91     119.5  T
   5    -18.1436591 -0.922498E-10  0.110E-04    3.91     227.2  T
     SCC iter.                  ...        0 min,  0.003 sec
     gradient                   ...        0 min,  0.004 sec
 * total energy  :   -17.7978245 Eh     change       -0.5524356E-05 Eh
   gradient norm :     0.0009656 Eh/α   predicted    -0.2514051E-05 ( -54.49%)
   displ. norm   :     0.0266922 α      lambda       -0.2868416E-05
   maximum displ.:     0.0257947 α      in ANC's #1, #5, #8, ...

........................................................................
.............................. CYCLE   28 ..............................
........................................................................

 iter      E             dE          RMSdq      gap      omega  full diag
   1    -18.1436801 -0.181437E+02  0.834E-03    3.91       0.0  T
   2    -18.1436801 -0.547789E-08  0.492E-03    3.91       5.1  T
   3    -18.1436801  0.514768E-07  0.200E-03    3.91      12.5  T
   4    -18.1436801 -0.586364E-07  0.127E-04    3.91     197.3  T
   5    -18.1436801 -0.262723E-10  0.685E-05    3.91     365.0  T
     SCC iter.                  ...        0 min,  0.005 sec
     gradient                   ...        0 min,  0.004 sec
 * total energy  :   -17.7978275 Eh     change       -0.3025824E-05 Eh
   gradient norm :     0.0012036 Eh/α   predicted    -0.1435004E-05 ( -52.57%)
   displ. norm   :     0.0184069 α      lambda       -0.1377376E-05
   maximum displ.:     0.0179102 α      in ANC's #1, #8, #7, ...

........................................................................
.............................. CYCLE   29 ..............................
........................................................................

 iter      E             dE          RMSdq      gap      omega  full diag
   1    -18.1436462 -0.181436E+02  0.392E-03    3.91       0.0  T
   2    -18.1436463 -0.198692E-08  0.231E-03    3.91      10.8  T
   3    -18.1436462  0.142201E-07  0.112E-03    3.91      22.3  T
   4    -18.1436463 -0.166407E-07  0.740E-05    3.91     337.7  T
   5    -18.1436463 -0.267733E-10  0.407E-05    3.91     614.2  T
     SCC iter.                  ...        0 min,  0.002 sec
     gradient                   ...        0 min,  0.003 sec
 * total energy  :   -17.7978289 Eh     change       -0.1354566E-05 Eh
   gradient norm :     0.0011685 Eh/α   predicted    -0.6898897E-06 ( -49.07%)
   displ. norm   :     0.0124790 α      lambda       -0.7613135E-06
   maximum displ.:     0.0120619 α      in ANC's #1, #2, #10, ...

........................................................................
.............................. CYCLE   30 ..............................
........................................................................

 iter      E             dE          RMSdq      gap      omega  full diag
   1    -18.1436681 -0.181437E+02  0.329E-03    3.91       0.0  T
   2    -18.1436681 -0.250555E-08  0.202E-03    3.91      12.4  T
   3    -18.1436681  0.154459E-07  0.117E-03    3.91      21.3  T
   4    -18.1436681 -0.192008E-07  0.876E-05    3.91     285.4  T
   5    -18.1436681 -0.506688E-10  0.403E-05    3.91     621.0  T
     SCC iter.                  ...        0 min,  0.002 sec
     gradient                   ...        0 min,  0.003 sec
 * total energy  :   -17.7978297 Eh     change       -0.8084971E-06 Eh
   gradient norm :     0.0002947 Eh/α   predicted    -0.3804673E-06 ( -52.94%)
   displ. norm   :     0.0085558 α      lambda       -0.3143020E-06
   maximum displ.:     0.0082302 α      in ANC's #1, #10, #2, ...

   *** GEOMETRY OPTIMIZATION CONVERGED AFTER 30 ITERATIONS ***

------------------------------------------------------------------------
 total energy gain   :        -0.1423330 Eh      -89.3153 kcal/mol
 total RMSD          :         0.9686204 a0        0.5126 Å
 total power (kW/mol):       -12.4565081 (step)-1383.8935 (real)
------------------------------------------------------------------------

 ANCopt (total)                0 d,  0 h,  0 min,  0.270 sec
 optimizer setup                ...        0 min,  0.000 sec (  0.066%)
 model hessian                  ...        0 min,  0.014 sec (  5.322%)
 ANC generation                 ...        0 min,  0.001 sec (  0.235%)
 coordinate transformation      ...        0 min,  0.000 sec (  0.074%)
 single point calculation       ...        0 min,  0.245 sec ( 90.596%)
 optimization log               ...        0 min,  0.003 sec (  1.254%)
 hessian update                 ...        0 min,  0.000 sec (  0.118%)
 rational function              ...        0 min,  0.004 sec (  1.385%)

================
 final structure:
================
16
 xtb: 6.6.1 (8d0f1dd)
C           -1.16877943634816       -1.61700028542955        0.00087957819595
C            0.19374294795934       -1.76010099146660       -0.41446452830314
C            0.61271982506810       -1.00593046780408       -1.44273297056247
C            0.40554106922798        0.95194683234888       -0.25046985092779
C           -0.56917555205573        0.95269829849659        0.68038280718996
C           -1.39521534644609       -1.12213160606522        1.22791873697056
H           -1.92450917604447       -1.53528264343101       -0.76866810471948
H            0.90340558674608       -2.14121183635266        0.30748577084570
H           -0.08931863634832       -0.66471681110837       -2.18558225279751
H            1.65247294773915       -0.94867360382452       -1.72007542942826
H            1.43780822004333        0.86075408658364        0.04059398628744
H            0.21588500741049        1.31329376858512       -1.24443105911554
H           -1.56789605896640        1.26162741631450        0.42407018040725
H           -0.32828680750649        0.92379826212191        1.72710133007470
H           -0.65945870200909       -1.24473270173109        2.00552896566663
H           -2.38430588847069       -0.85007771723624        1.55807284021750

 Bond Distances (Angstroems)
 ---------------------------
C1-C2=1.4316         C1-C6=1.3423         C1-H7=1.0817         C2-C1=1.4316         C2-C3=1.3423         C2-H8=1.0817         
C3-C2=1.3423         C3-H9=1.0775         C3-H10=1.0776        C4-C5=1.3478         C4-H11=1.0764        C4-H12=1.0745        
C5-C4=1.3478         C5-H13=1.0764        C5-H14=1.0745        C6-C1=1.3423         C6-H15=1.0775        C6-H16=1.0776        
H7-C1=1.0817         H8-C2=1.0817         H9-C3=1.0775         H10-C3=1.0776        H11-C4=1.0764        H12-C4=1.0745        
H13-C5=1.0764        H14-C5=1.0745        H15-C6=1.0775        H16-C6=1.0776        
 C  H  Rav=1.0775 sigma=0.0024  Rmin=1.0745  Rmax=1.0817    10
 C  C  Rav=1.3660 sigma=0.0379  Rmin=1.3423  Rmax=1.4316     4

 selected bond angles (degree)
 --------------------
C6-C1-C2=117.56                H7-C1-C2=117.78                H7-C1-C6=120.31                C3-C2-C1=117.59                
H8-C2-C1=117.77                H8-C2-C3=120.30                H9-C3-C2=120.18                H10-C3-C2=121.88               
H10-C3-H9=115.75               H11-C4-C5=120.45               H12-C4-C5=120.73               H12-C4-H11=116.61              
H13-C5-C4=120.45               H14-C5-C4=120.71               H14-C5-H13=116.60              H15-C6-C1=120.17               
H16-C6-C1=121.87               H16-C6-H15=115.74              

 selected dihedral angles (degree)
 ---------------------------------
C3-C2-C1-C6=245.04            C3-C2-C1-H7= 41.72            H8-C2-C1-C6= 41.76            H8-C2-C1-H7=198.44            
H9-C3-C2-C1=333.32            H9-C3-C2-H8=177.21            H10-C3-C2-C1=170.87           H10-C3-C2-H8= 14.76           
H13-C5-C4-H11=166.20          H13-C5-C4-H12=  3.63          H14-C5-C4-H11=  3.81          H14-C5-C4-H12=201.24          
H15-C6-C1-C2=333.24           H15-C6-C1-H7=177.18           H16-C6-C1-C2=170.89           H16-C6-C1-H7= 14.82           

 CMA Distance (Angstroems)
 ---------------------------
R(CMA):  2.3887
           -------------------------------------------------
          |                Final Singlepoint                |
           -------------------------------------------------

          ...................................................
          :                      SETUP                      :
          :.................................................:
          :  # basis functions                  34          :
          :  # atomic orbitals                  34          :
          :  # shells                           22          :
          :  # electrons                        34          :
          :  max. iterations                   250          :
          :  Hamiltonian                  GFN2-xTB          :
          :  restarted?                      false          :
          :  GBSA solvation                  false          :
          :  PC potential                    false          :
          :  electronic temp.          300.0000000     K    :
          :  accuracy                    1.0000000          :
          :  -> integral cutoff          0.2500000E+02      :
          :  -> integral neglect         0.1000000E-07      :
          :  -> SCF convergence          0.1000000E-05 Eh   :
          :  -> wf. convergence          0.1000000E-03 e    :
          :  Broyden damping             0.4000000          :
          ...................................................

 iter      E             dE          RMSdq      gap      omega  full diag
   1    -18.1436681 -0.181437E+02  0.204E-05    3.91       0.0  T
   2    -18.1436681 -0.116174E-11  0.170E-05    3.91    1467.8  T
   3    -18.1436681 -0.375167E-11  0.532E-06    3.91    4697.3  T

   *** convergence criteria satisfied after 3 iterations ***

         #    Occupation            Energy/Eh            Energy/eV
      -------------------------------------------------------------
         1        2.0000           -0.6250168             -17.0076
       ...           ...                  ...                  ...
        11        2.0000           -0.4632135             -12.6047
        12        2.0000           -0.4492424             -12.2245
        13        2.0000           -0.4385132             -11.9326
        14        2.0000           -0.4305301             -11.7153
        15        2.0000           -0.4194385             -11.4135
        16        2.0000           -0.3884394             -10.5700
        17        2.0000           -0.3685506             -10.0288 (HOMO)
        18                         -0.2248352              -6.1181 (LUMO)
        19                         -0.2082234              -5.6660
        20                         -0.1494205              -4.0659
        21                          0.1135512               3.0899
        22                          0.1481719               4.0320
       ...                                ...                  ...
        34                          0.6005097              16.3407
      -------------------------------------------------------------
                  HL-Gap            0.1437154 Eh            3.9107 eV
             Fermi-level           -0.2966929 Eh           -8.0734 eV

 SCC (total)                   0 d,  0 h,  0 min,  0.006 sec
 SCC setup                      ...        0 min,  0.000 sec (  2.045%)
 Dispersion                     ...        0 min,  0.000 sec (  1.161%)
 classical contributions        ...        0 min,  0.000 sec (  0.764%)
 integral evaluation            ...        0 min,  0.001 sec ( 17.734%)
 iterations                     ...        0 min,  0.002 sec ( 26.165%)
 molecular gradient             ...        0 min,  0.003 sec ( 49.203%)
 printout                       ...        0 min,  0.000 sec (  2.689%)

         :::::::::::::::::::::::::::::::::::::::::::::::::::::
         ::                     SUMMARY                     ::
         :::::::::::::::::::::::::::::::::::::::::::::::::::::
         :: total energy             -17.797829710822 Eh    ::
         :: gradient norm              0.000294753988 Eh/a0 ::
         :: HOMO-LUMO gap              3.910694071894 eV    ::
         ::.................................................::
         :: SCC energy               -18.143668077995 Eh    ::
         :: -> isotropic ES            0.003336319185 Eh    ::
         :: -> anisotropic ES          0.005837964888 Eh    ::
         :: -> anisotropic XC          0.017996160637 Eh    ::
         :: -> dispersion             -0.011167877361 Eh    ::
         :: repulsion energy           0.345771735940 Eh    ::
         :: add. restraining           0.000039678030 Eh    ::
         :: total charge               0.000000000000 e     ::
         :::::::::::::::::::::::::::::::::::::::::::::::::::::

           -------------------------------------------------
          |                Property Printout                |
           -------------------------------------------------

    * Orbital Energies and Occupations

         #    Occupation            Energy/Eh            Energy/eV
      -------------------------------------------------------------
         1        2.0000           -0.6250168             -17.0076
       ...           ...                  ...                  ...
         5        2.0000           -0.5473082             -14.8930
         6        2.0000           -0.5386245             -14.6567
         7        2.0000           -0.5012054             -13.6385
         8        2.0000           -0.4978035             -13.5459
         9        2.0000           -0.4962158             -13.5027
        10        2.0000           -0.4732667             -12.8782
        11        2.0000           -0.4632135             -12.6047
        12        2.0000           -0.4492424             -12.2245
        13        2.0000           -0.4385132             -11.9326
        14        2.0000           -0.4305301             -11.7153
        15        2.0000           -0.4194385             -11.4135
        16        2.0000           -0.3884394             -10.5700
        17        2.0000           -0.3685506             -10.0288 (HOMO)
        18                         -0.2248352              -6.1181 (LUMO)
        19                         -0.2082234              -5.6660
        20                         -0.1494205              -4.0659
        21                          0.1135512               3.0899
        22                          0.1481719               4.0320
        23                          0.1614460               4.3932
        24                          0.1667475               4.5374
        25                          0.1807616               4.9188
        26                          0.2064450               5.6177
        27                          0.2230648               6.0699
        28                          0.2235292               6.0825
       ...                                ...                  ...
        34                          0.6005097              16.3407
      -------------------------------------------------------------
                  HL-Gap            0.1437154 Eh            3.9107 eV
             Fermi-level           -0.2966929 Eh           -8.0734 eV

     #   Z          covCN         q      C6AA      α(0)
     1   6 C        2.909    -0.032    28.785     8.798
     2   6 C        2.909    -0.031    28.783     8.797
     3   6 C        2.910    -0.071    29.768     8.947
     4   6 C        2.887    -0.086    30.151     9.002
     5   6 C        2.888    -0.086    30.149     9.002
     6   6 C        2.911    -0.071    29.766     8.946
     7   1 H        0.925     0.036     2.501     2.473
     8   1 H        0.925     0.036     2.501     2.473
     9   1 H        0.926     0.043     2.407     2.426
    10   1 H        0.926     0.039     2.463     2.454
    11   1 H        0.926     0.031     2.573     2.509
    12   1 H        0.926     0.039     2.460     2.453
    13   1 H        0.926     0.031     2.573     2.508
    14   1 H        0.926     0.039     2.459     2.452
    15   1 H        0.926     0.043     2.407     2.426
    16   1 H        0.926     0.039     2.463     2.454

 Mol. C6AA /au·bohr⁶  :       2338.626887
 Mol. C8AA /au·bohr⁸  :      52969.479892
 Mol. α(0) /au        :         78.120855


Wiberg/Mayer (AO) data.
largest (>0.10) Wiberg bond orders for each atom

 ---------------------------------------------------------------------------
     #   Z sym  total        # sym  WBO       # sym  WBO       # sym  WBO
 ---------------------------------------------------------------------------
     1   6 C    3.985 --     6 C    1.744     2 C    1.173     7 H    0.962
     2   6 C    3.985 --     3 C    1.744     1 C    1.173     8 H    0.962
     3   6 C    3.991 --     2 C    1.744    10 H    0.978     9 H    0.974
                             4 C    0.162     6 C    0.102
     4   6 C    3.993 --     5 C    1.803    11 H    0.979    12 H    0.969
                             3 C    0.162
     5   6 C    3.993 --     4 C    1.803    13 H    0.979    14 H    0.969
                             6 C    0.162
     6   6 C    3.991 --     1 C    1.744    16 H    0.978    15 H    0.974
                             5 C    0.162     3 C    0.102
     7   1 H    0.999 --     1 C    0.962
     8   1 H    0.999 --     2 C    0.962
     9   1 H    0.998 --     3 C    0.974
    10   1 H    0.998 --     3 C    0.978
    11   1 H    0.999 --     4 C    0.979
    12   1 H    0.998 --     4 C    0.969
    13   1 H    0.999 --     5 C    0.979
    14   1 H    0.998 --     5 C    0.969
    15   1 H    0.998 --     6 C    0.974
    16   1 H    0.998 --     6 C    0.978
 ---------------------------------------------------------------------------

Topologies differ in total number of bonds
Writing topology from bond orders to xtbtopo.mol

molecular dipole:
                 x           y           z       tot (Debye)
 q only:       -0.011      -0.073      -0.011
   full:        0.001       0.005       0.001       0.013
molecular quadrupole (traceless):
                xx          xy          yy          xz          yz          zz
 q only:        0.432      -0.180      -1.330      -0.339      -0.329       0.897
  q+dip:        2.622      -1.368      -5.576       0.223      -1.462       2.953
   full:        1.534      -0.826      -3.400       0.135      -0.901       1.865

           -------------------------------------------------
          |                Geometry Summary                 |
           -------------------------------------------------

      molecular mass/u    :       82.1438229
   center of mass at/Å    :       -0.3145778      -0.5635740      -0.0272537
  moments of inertia/u·Å² :        0.1266275E+03   0.1273483E+03   0.2240767E+03
rotational constants/cm⁻¹ :        0.1331277E+00   0.1323743E+00   0.7523153E-01

 * 14 selected distances

     #   Z          #   Z                                           value/Å
     1   6 C        2   6 C                                       1.4315922 (max)
     2   6 C        3   6 C                                       1.3422560
     4   6 C        5   6 C                                       1.3477982
     1   6 C        6   6 C                                       1.3423091
     1   6 C        7   1 H                                       1.0816696
     2   6 C        8   1 H                                       1.0817019
     3   6 C        9   1 H                                       1.0775482
     3   6 C       10   1 H                                       1.0776289
     4   6 C       11   1 H                                       1.0763875
     4   6 C       12   1 H                                       1.0744767
     5   6 C       13   1 H                                       1.0763718
     5   6 C       14   1 H                                       1.0744685 (min)
     6   6 C       15   1 H                                       1.0775188
     6   6 C       16   1 H                                       1.0776434

 * 2 distinct bonds (by element types)

   Z      Z             #   av. dist./Å        max./Å        min./Å
   1 H    6 C          10     1.0775415     1.0817019     1.0744685
   6 C    6 C           4     1.3659889     1.4315922     1.3422560


optimized geometry written to: xtbopt.xyz


           -------------------------------------------------
          | TOTAL ENERGY              -17.797829710822 Eh   |
          | GRADIENT NORM               0.000294753988 Eh/α |
          | HOMO-LUMO GAP               3.910694071894 eV   |
           -------------------------------------------------

------------------------------------------------------------------------
 * finished run on 2025/05/23 at 13:00:52.440     
------------------------------------------------------------------------
 total:
 * wall-time:     0 d,  0 h,  0 min,  0.298 sec
 *  cpu-time:     0 d,  0 h,  0 min,  0.298 sec
 * ratio c/w:     1.000 speedup
 SCF:
 * wall-time:     0 d,  0 h,  0 min,  0.011 sec
 *  cpu-time:     0 d,  0 h,  0 min,  0.011 sec
 * ratio c/w:     1.000 speedup
 ANC optimizer:
 * wall-time:     0 d,  0 h,  0 min,  0.277 sec
 *  cpu-time:     0 d,  0 h,  0 min,  0.277 sec
 * ratio c/w:     1.000 speedup

