      -----------------------------------------------------------      
     |                   =====================                   |     
     |                           x T B                           |     
     |                   =====================                   |     
     |                         S. Grimme                         |     
     |          Mulliken Center for Theoretical Chemistry        |     
     |                    University of Bonn                     |     
      -----------------------------------------------------------      

   * xtb version 6.6.1 (8d0f1dd) compiled by 'conda@1efc2f54142f' on 2023-08-01

   xtb is free software: you can redistribute it and/or modify it under
   the terms of the GNU Lesser General Public License as published by
   the Free Software Foundation, either version 3 of the License, or
   (at your option) any later version.
   
   xtb is distributed in the hope that it will be useful,
   but WITHOUT ANY WARRANTY; without even the implied warranty of
   MERCHANTABILITY or FITNESS FOR A PARTICULAR PURPOSE.  See the
   GNU Lesser General Public License for more details.
   
   Cite this work as:
   * C. Bannwarth, E. Caldeweyher, S. Ehlert, A. Hansen, P. Pracht,
     J. Seibert, S. Spicher, S. Grimme, WIREs Comput. Mol. Sci., 2020, 11,
     e01493. DOI: 10.1002/wcms.1493
   
   for GFN2-xTB:
   * C. Bannwarth, S. Ehlert and S. Grimme., J. Chem. Theory Comput., 2019,
     15, 1652-1671. DOI: 10.1021/acs.jctc.8b01176
   for GFN1-xTB:
   * S. Grimme, C. Bannwarth, P. Shushkov, J. Chem. Theory Comput., 2017,
     13, 1989-2009. DOI: 10.1021/acs.jctc.7b00118
   for GFN0-xTB:
   * P. Pracht, E. Caldeweyher, S. Ehlert, S. Grimme, ChemRxiv, 2019, preprint.
     DOI: 10.26434/chemrxiv.8326202.v1
   for GFN-FF:
   * S. Spicher and S. Grimme, Angew. Chem. Int. Ed., 2020, 59, 15665-15673.
     DOI: 10.1002/anie.202004239
   
   for ALPB and GBSA implicit solvation:
   * S. Ehlert, M. Stahn, S. Spicher, S. Grimme, J. Chem. Theory Comput.,
     2021, 17, 4250-4261. DOI: 10.1021/acs.jctc.1c00471
   
   for DFT-D4:
   * E. Caldeweyher, C. Bannwarth and S. Grimme, J. Chem. Phys., 2017,
     147, 034112. DOI: 10.1063/1.4993215
   * E. Caldeweyher, S. Ehlert, A. Hansen, H. Neugebauer, S. Spicher,
     C. Bannwarth and S. Grimme, J. Chem. Phys., 2019, 150, 154122.
     DOI: 10.1063/1.5090222
   * E. Caldeweyher, J.-M. Mewes, S. Ehlert and S. Grimme, Phys. Chem. Chem. Phys.
     2020, 22, 8499-8512. DOI: 10.1039/D0CP00502A
   
   for sTDA-xTB:
   * S. Grimme and C. Bannwarth, J. Chem. Phys., 2016, 145, 054103.
     DOI: 10.1063/1.4959605
   
   in the mass-spec context:
   * V. Asgeirsson, C. Bauer and S. Grimme, Chem. Sci., 2017, 8, 4879.
     DOI: 10.1039/c7sc00601b
   * J. Koopman and S. Grimme, ACS Omega 2019, 4, 12, 15120-15133.
     DOI: 10.1021/acsomega.9b02011
   
   for metadynamics refer to:
   * S. Grimme, J. Chem. Theory Comput., 2019, 155, 2847-2862
     DOI: 10.1021/acs.jctc.9b00143
   
   for SPH calculations refer to:
   * S. Spicher and S. Grimme, J. Chem. Theory Comput., 2021, 17, 1701-1714
     DOI: 10.1021/acs.jctc.0c01306
   
   with help from (in alphabetical order)
   P. Atkinson, C. Bannwarth, F. Bohle, G. Brandenburg, E. Caldeweyher
   M. Checinski, S. Dohm, S. Ehlert, S. Ehrlich, I. Gerasimov, C. Hölzer
   A. Katbashev, J. Koopman, C. Lavigne, S. Lehtola, F. März, M. Müller,
   F. Musil, H. Neugebauer, J. Pisarek, C. Plett, P. Pracht, F. Pultar,
   J. Seibert, P. Shushkov, S. Spicher, M. Stahn, M. Steiner, T. Strunk,
   J. Stückrath, T. Rose, and J. Unsleber
   
 * started run on 2025/05/23 at 13:00:53.252     

           -------------------------------------------------
          |                Calculation Setup                |
           -------------------------------------------------

          program call               : /home/avcopan/code/other/saddle-search-practice/.pixi/envs/default/bin/xtb TS_5ZPuRE_ll_ad_2-3_4-5_conf299_opt_xtb.xyz --chrg 0 --uhf 0 --opt --input xcontrol_TS_5ZPuRE_ll_ad_2-3_4-5_conf299_opt_xtb
          coordinate file            : TS_5ZPuRE_ll_ad_2-3_4-5_conf299_opt_xtb.xyz
          omp threads                :                     1

   ID    Z sym.   atoms
    1    6 C      1-6
    2    1 H      7-16
constraining bond 3 4 to    2.3000000 Å, actual value:    2.3000594 Å
constraining bond 5 6 to    2.2977000 Å, actual value:    2.2977204 Å

molecular fragmentation (1/2 indicates fragments):
1112211111222211
# atoms in fragment 1/2:    10     6
 fragment masses (1/2) :       54.09       28.05
CMA distance (Bohr)    :   4.579
constraining FC (au)   :  2.0000

           -------------------------------------------------
          |                 G F N 2 - x T B                 |
           -------------------------------------------------

        Reference                      10.1021/acs.jctc.8b01176
      * Hamiltonian:
        H0-scaling (s, p, d)           1.850000    2.230000    2.230000
        zeta-weighting                 0.500000
      * Dispersion:
        s8                             2.700000
        a1                             0.520000
        a2                             5.000000
        s9                             5.000000
      * Repulsion:
        kExp                           1.500000    1.000000
        rExp                           1.000000
      * Coulomb:
        alpha                          2.000000
        third order                    shell-resolved
        anisotropic                    true
        a3                             3.000000
        a5                             4.000000
        cn-shift                       1.200000
        cn-exp                         4.000000
        max-rad                        5.000000


          ...................................................
          :                      SETUP                      :
          :.................................................:
          :  # basis functions                  34          :
          :  # atomic orbitals                  34          :
          :  # shells                           22          :
          :  # electrons                        34          :
          :  max. iterations                   250          :
          :  Hamiltonian                  GFN2-xTB          :
          :  restarted?                      false          :
          :  GBSA solvation                  false          :
          :  PC potential                    false          :
          :  electronic temp.          300.0000000     K    :
          :  accuracy                    1.0000000          :
          :  -> integral cutoff          0.2500000E+02      :
          :  -> integral neglect         0.1000000E-07      :
          :  -> SCF convergence          0.1000000E-05 Eh   :
          :  -> wf. convergence          0.1000000E-03 e    :
          :  Broyden damping             0.4000000          :
          ...................................................

 iter      E             dE          RMSdq      gap      omega  full diag
   1    -17.8443560 -0.178444E+02  0.388E+00    1.17       0.0  T
   2    -17.8290897  0.152662E-01  0.276E+00    1.21       1.0  T
   3    -17.6469488  0.182141E+00  0.368E+00    1.72       1.0  T
   4    -17.8737672 -0.226818E+00  0.627E-01    1.14       1.0  T
   5    -17.8743539 -0.586762E-03  0.382E-01    1.13       1.0  T
   6    -17.8762907 -0.193679E-02  0.120E-01    1.14       1.0  T
   7    -17.8762809  0.982787E-05  0.957E-02    1.13       1.0  T
   8    -17.8763998 -0.118897E-03  0.551E-02    1.14       1.0  T
   9    -17.8764314 -0.315527E-04  0.169E-02    1.13       1.5  T
  10    -17.8764338 -0.245562E-05  0.912E-03    1.13       2.7  T
  11    -17.8764352 -0.138493E-05  0.142E-03    1.13      17.6  T
  12    -17.8764352 -0.179388E-08  0.619E-04    1.13      40.4  T
  13    -17.8764352 -0.397727E-08  0.314E-04    1.13      79.6  T

   *** convergence criteria satisfied after 13 iterations ***

         #    Occupation            Energy/Eh            Energy/eV
      -------------------------------------------------------------
         1        2.0000           -0.5942550             -16.1705
       ...           ...                  ...                  ...
        11        2.0000           -0.4561179             -12.4116
        12        2.0000           -0.4459410             -12.1347
        13        2.0000           -0.4380147             -11.9190
        14        2.0000           -0.4337109             -11.8019
        15        2.0000           -0.4049386             -11.0189
        16        2.0000           -0.3561106              -9.6903
        17        2.0000           -0.3127847              -8.5113 (HOMO)
        18                         -0.2710874              -7.3767 (LUMO)
        19                         -0.2443137              -6.6481
        20                         -0.2001437              -5.4462
        21                          0.0402378               1.0949
        22                          0.0883167               2.4032
       ...                                ...                  ...
        34                          0.4087180              11.1218
      -------------------------------------------------------------
                  HL-Gap            0.0416974 Eh            1.1346 eV
             Fermi-level           -0.2919361 Eh           -7.9440 eV

 SCC (total)                   0 d,  0 h,  0 min,  0.011 sec
 SCC setup                      ...        0 min,  0.000 sec (  1.393%)
 Dispersion                     ...        0 min,  0.000 sec (  1.314%)
 classical contributions        ...        0 min,  0.000 sec (  0.619%)
 integral evaluation            ...        0 min,  0.002 sec ( 16.579%)
 iterations                     ...        0 min,  0.006 sec ( 51.250%)
 molecular gradient             ...        0 min,  0.003 sec ( 25.846%)
 printout                       ...        0 min,  0.000 sec (  2.847%)

         :::::::::::::::::::::::::::::::::::::::::::::::::::::
         ::                     SUMMARY                     ::
         :::::::::::::::::::::::::::::::::::::::::::::::::::::
         :: total energy             -17.650326313165 Eh    ::
         :: gradient norm              0.220280560884 Eh/a0 ::
         :: HOMO-LUMO gap              1.134642983913 eV    ::
         ::.................................................::
         :: SCC energy               -17.876435204519 Eh    ::
         :: -> isotropic ES            0.004271177607 Eh    ::
         :: -> anisotropic ES          0.007828591410 Eh    ::
         :: -> anisotropic XC          0.021655221311 Eh    ::
         :: -> dispersion             -0.010678593531 Eh    ::
         :: repulsion energy           0.226074063313 Eh    ::
         :: add. restraining           0.000000028170 Eh    ::
         :: total charge              -0.000000000000 e     ::
         :::::::::::::::::::::::::::::::::::::::::::::::::::::

      ----------------------------------------------------------- 
     |                   =====================                   |
     |                        A N C O P T                        |
     |                   =====================                   |
     |               Approximate Normal Coordinate               |
     |                Rational Function Optimizer                |
      ----------------------------------------------------------- 

          ...................................................
          :                      SETUP                      :
          :.................................................:
          :   optimization level            normal          :
          :   max. optcycles                   200          :
          :   ANC micro-cycles                  20          :
          :   degrees of freedom                42          :
          :.................................................:
          :   RF solver                   davidson          :
          :   write xtbopt.log                true          :
          :   linear?                        false          :
          :   energy convergence         0.5000000E-05 Eh   :
          :   grad. convergence          0.1000000E-02 Eh/α :
          :   maxmium RF displ.          1.0000000          :
          :   Hlow (freq-cutoff)         0.1000000E-01      :
          :   Hmax (freq-cutoff)         5.0000000          :
          :   S6 in model hess.         20.0000000          :
          ...................................................

generating ANC from model Hessian ...
Using Lindh-Hessian (1995)
 Shifting diagonal of input Hessian by    9.0537883133771924E-003
 Lowest  eigenvalues of input Hessian
    0.000000    0.000000    0.000000    0.000000    0.000000    0.000000
    0.010000    0.010387    0.011520    0.012420    0.012545    0.015223
    0.016165    0.021327    0.021778    0.022011    0.023486    0.026631
 Highest eigenvalues
    1.213906    1.247426    1.278733    1.299495    8.131789    8.184594


........................................................................
.............................. CYCLE    1 ..............................
........................................................................

 iter      E             dE          RMSdq      gap      omega  full diag
   1    -17.8764352 -0.178764E+02  0.383E-05    1.13       0.0  T
   2    -17.8764352  0.189765E-09  0.108E-04    1.13     232.5  T
   3    -17.8764352 -0.207226E-09  0.134E-05    1.13    1862.9  T
     SCC iter.                  ...        0 min,  0.002 sec
     gradient                   ...        0 min,  0.003 sec
 * total energy  :   -17.6503263 Eh     change       -0.7409469E-09 Eh
   gradient norm :     0.2202805 Eh/α   predicted     0.0000000E+00 (-100.00%)
   displ. norm   :     0.5838956 α      lambda       -0.8711549E-01
   maximum displ.:     0.2734798 α      in ANC's #27, #11, #4, ...

........................................................................
.............................. CYCLE    2 ..............................
........................................................................

 iter      E             dE          RMSdq      gap      omega  full diag
   1    -17.9891486 -0.179891E+02  0.792E-01    1.85       0.0  T
   2    -17.9870048  0.214378E-02  0.614E-01    1.86       1.0  T
   3    -17.9866126  0.392236E-03  0.566E-01    1.85       1.0  T
   4    -17.9901058 -0.349322E-02  0.124E-01    1.85       1.0  T
   5    -17.9903584 -0.252643E-03  0.226E-02    1.85       1.1  T
   6    -17.9903634 -0.496583E-05  0.155E-02    1.85       1.6  T
   7    -17.9903664 -0.299890E-05  0.566E-03    1.85       4.4  T
   8    -17.9903665 -0.940809E-07  0.279E-03    1.85       9.0  T
   9    -17.9903666 -0.104879E-06  0.382E-04    1.85      65.5  T
  10    -17.9903666 -0.590163E-09  0.219E-04    1.85     113.9  T
     SCC iter.                  ...        0 min,  0.004 sec
     gradient                   ...        0 min,  0.003 sec
 * total energy  :   -17.7215149 Eh     change       -0.7118860E-01 Eh
   gradient norm :     0.1427684 Eh/α   predicted    -0.5840805E-01 ( -17.95%)
   displ. norm   :     0.6949423 α      lambda       -0.6958397E-01
   maximum displ.:     0.3389403 α      in ANC's #27, #8, #11, ...

........................................................................
.............................. CYCLE    3 ..............................
........................................................................

 iter      E             dE          RMSdq      gap      omega  full diag
   1    -18.1033983 -0.181034E+02  0.856E-01    2.81       0.0  T
   2    -18.1036079 -0.209597E-03  0.561E-01    2.82       1.0  T
   3    -18.1015371  0.207074E-02  0.400E-01    2.80       1.0  T
   4    -18.1039707 -0.243352E-02  0.543E-02    2.81       1.0  T
   5    -18.1039965 -0.258426E-04  0.226E-02    2.81       1.1  T
   6    -18.1040026 -0.604129E-05  0.630E-03    2.81       4.0  T
   7    -18.1040026 -0.178187E-07  0.287E-03    2.81       8.7  T
   8    -18.1040026 -0.626834E-07  0.103E-03    2.81      24.2  T
   9    -18.1040026 -0.137155E-07  0.242E-04    2.81     103.2  T
  10    -18.1040026 -0.109150E-09  0.904E-05    2.81     276.6  T
     SCC iter.                  ...        0 min,  0.005 sec
     gradient                   ...        0 min,  0.003 sec
 * total energy  :   -17.7588953 Eh     change       -0.3738041E-01 Eh
   gradient norm :     0.1314944 Eh/α   predicted    -0.5159461E-01 (  38.03%)
   displ. norm   :     0.6814874 α      lambda       -0.3698141E-01
   maximum displ.:     0.3873997 α      in ANC's #8, #4, #11, ...

........................................................................
.............................. CYCLE    4 ..............................
........................................................................

 iter      E             dE          RMSdq      gap      omega  full diag
   1    -18.0884236 -0.180884E+02  0.737E-01    3.41       0.0  T
   2    -18.0889252 -0.501620E-03  0.470E-01    3.42       1.0  T
   3    -18.0884965  0.428693E-03  0.281E-01    3.44       1.0  T
   4    -18.0893519 -0.855407E-03  0.573E-02    3.41       1.0  T
   5    -18.0893944 -0.424891E-04  0.122E-02    3.42       2.1  T
   6    -18.0893953 -0.901350E-06  0.681E-03    3.42       3.7  T
   7    -18.0893956 -0.240096E-06  0.218E-03    3.42      11.5  T
   8    -18.0893956 -0.194266E-07  0.598E-04    3.42      41.8  T
   9    -18.0893956 -0.207071E-08  0.252E-04    3.42      99.4  T
     SCC iter.                  ...        0 min,  0.003 sec
     gradient                   ...        0 min,  0.003 sec
 * total energy  :   -17.7811601 Eh     change       -0.2226482E-01 Eh
   gradient norm :     0.0597405 Eh/α   predicted    -0.2707826E-01 (  21.62%)
   displ. norm   :     0.5823473 α      lambda       -0.1700662E-01
   maximum displ.:     0.3763154 α      in ANC's #4, #11, #8, ...

........................................................................
.............................. CYCLE    5 ..............................
........................................................................

 iter      E             dE          RMSdq      gap      omega  full diag
   1    -18.1100348 -0.181100E+02  0.522E-01    3.63       0.0  T
   2    -18.1100708 -0.359429E-04  0.306E-01    3.61       1.0  T
   3    -18.1097906  0.280147E-03  0.149E-01    3.64       1.0  T
   4    -18.1101179 -0.327271E-03  0.109E-02    3.62       2.3  T
   5    -18.1101182 -0.267766E-06  0.747E-03    3.62       3.3  T
   6    -18.1101186 -0.401885E-06  0.283E-03    3.62       8.8  T
   7    -18.1101186 -0.216595E-07  0.975E-04    3.62      25.6  T
   8    -18.1101186 -0.726244E-08  0.246E-04    3.62     101.8  T
     SCC iter.                  ...        0 min,  0.004 sec
     gradient                   ...        0 min,  0.003 sec
 * total energy  :   -17.7927036 Eh     change       -0.1154345E-01 Eh
   gradient norm :     0.0560320 Eh/α   predicted    -0.1138706E-01 (  -1.35%)
   displ. norm   :     0.6336216 α      lambda       -0.1538199E-01
   maximum displ.:     0.3848977 α      in ANC's #4, #27, #13, ...

........................................................................
.............................. CYCLE    6 ..............................
........................................................................

 iter      E             dE          RMSdq      gap      omega  full diag
   1    -18.1398224 -0.181398E+02  0.524E-01    3.90       0.0  T
   2    -18.1398585 -0.360688E-04  0.308E-01    3.90       1.0  T
   3    -18.1396890  0.169503E-03  0.117E-01    3.89       1.0  T
   4    -18.1398888 -0.199800E-03  0.138E-02    3.90       1.8  T
   5    -18.1398890 -0.178402E-06  0.686E-03    3.90       3.6  T
   6    -18.1398892 -0.178107E-06  0.154E-03    3.90      16.2  T
   7    -18.1398892 -0.341389E-08  0.809E-04    3.90      30.9  T
   8    -18.1398892 -0.442806E-08  0.318E-04    3.90      78.6  T
     SCC iter.                  ...        0 min,  0.003 sec
     gradient                   ...        0 min,  0.003 sec
 * total energy  :   -17.7999894 Eh     change       -0.7285802E-02 Eh
   gradient norm :     0.0794079 Eh/α   predicted    -0.1077877E-01 (  47.94%)
   displ. norm   :     0.4898186 α      lambda       -0.1087087E-01
   maximum displ.:     0.3159641 α      in ANC's #4, #6, #2, ...

........................................................................
.............................. CYCLE    7 ..............................
........................................................................

 iter      E             dE          RMSdq      gap      omega  full diag
   1    -18.1511090 -0.181511E+02  0.353E-01    3.87       0.0  T
   2    -18.1511534 -0.443710E-04  0.206E-01    3.87       1.0  T
   3    -18.1510662  0.871416E-04  0.930E-02    3.87       1.0  T
   4    -18.1511738 -0.107609E-03  0.135E-02    3.87       1.8  T
   5    -18.1511748 -0.997481E-06  0.667E-03    3.87       3.7  T
   6    -18.1511749 -0.425626E-07  0.288E-03    3.87       8.7  T
   7    -18.1511750 -0.613973E-07  0.711E-04    3.87      35.1  T
   8    -18.1511750 -0.352950E-08  0.305E-04    3.87      81.9  T
     SCC iter.                  ...        0 min,  0.004 sec
     gradient                   ...        0 min,  0.004 sec
 * total energy  :   -17.8054051 Eh     change       -0.5415695E-02 Eh
   gradient norm :     0.0745094 Eh/α   predicted    -0.6739510E-02 (  24.44%)
   displ. norm   :     0.4387694 α      lambda       -0.6841391E-02
   maximum displ.:     0.2283662 α      in ANC's #2, #4, #1, ...

........................................................................
.............................. CYCLE    8 ..............................
........................................................................

 iter      E             dE          RMSdq      gap      omega  full diag
   1    -18.1429235 -0.181429E+02  0.399E-01    3.76       0.0  T
   2    -18.1429343 -0.107356E-04  0.238E-01    3.76       1.0  T
   3    -18.1428559  0.783555E-04  0.771E-02    3.77       1.0  T
   4    -18.1429436 -0.877043E-04  0.970E-03    3.76       2.6  T
   5    -18.1429444 -0.746028E-06  0.438E-03    3.76       5.7  T
   6    -18.1429444 -0.643623E-07  0.192E-03    3.76      13.0  T
   7    -18.1429445 -0.264620E-07  0.618E-04    3.76      40.4  T
   8    -18.1429445 -0.215057E-08  0.191E-04    3.76     131.2  T
     SCC iter.                  ...        0 min,  0.003 sec
     gradient                   ...        0 min,  0.003 sec
 * total energy  :   -17.8072939 Eh     change       -0.1888848E-02 Eh
   gradient norm :     0.0855668 Eh/α   predicted    -0.4079244E-02 ( 115.96%)
   displ. norm   :     0.2855264 α      lambda       -0.4337095E-02
   maximum displ.:     0.1722318 α      in ANC's #4, #1, #6, ...

........................................................................
.............................. CYCLE    9 ..............................
........................................................................

 iter      E             dE          RMSdq      gap      omega  full diag
   1    -18.1464787 -0.181465E+02  0.259E-01    3.80       0.0  T
   2    -18.1464845 -0.579542E-05  0.152E-01    3.80       1.0  T
   3    -18.1464591  0.254462E-04  0.470E-02    3.80       1.0  T
   4    -18.1464889 -0.297841E-04  0.513E-03    3.80       4.9  T
   5    -18.1464889 -0.681528E-07  0.273E-03    3.80       9.1  T
   6    -18.1464890 -0.206657E-07  0.784E-04    3.80      31.9  T
   7    -18.1464890 -0.226610E-08  0.345E-04    3.80      72.4  T
     SCC iter.                  ...        0 min,  0.005 sec
     gradient                   ...        0 min,  0.005 sec
 * total energy  :   -17.8096102 Eh     change       -0.2316202E-02 Eh
   gradient norm :     0.0303287 Eh/α   predicted    -0.2345336E-02 (   1.26%)
   displ. norm   :     0.2764041 α      lambda       -0.2730959E-02
   maximum displ.:     0.1310508 α      in ANC's #1, #2, #6, ...

........................................................................
.............................. CYCLE   10 ..............................
........................................................................

 iter      E             dE          RMSdq      gap      omega  full diag
   1    -18.1542417 -0.181542E+02  0.214E-01    3.96       0.0  T
   2    -18.1542699 -0.281748E-04  0.133E-01    3.95       1.0  T
   3    -18.1542223  0.476232E-04  0.619E-02    3.96       1.0  T
   4    -18.1542814 -0.590920E-04  0.112E-02    3.96       2.2  T
   5    -18.1542826 -0.125396E-05  0.464E-03    3.96       5.4  T
   6    -18.1542826 -0.364326E-07  0.190E-03    3.96      13.1  T
   7    -18.1542827 -0.268680E-07  0.948E-04    3.96      26.4  T
   8    -18.1542827 -0.508487E-08  0.169E-04    3.96     147.8  T
     SCC iter.                  ...        0 min,  0.003 sec
     gradient                   ...        0 min,  0.004 sec
 * total energy  :   -17.8090559 Eh     change        0.5542292E-03 Eh
   gradient norm :     0.0564639 Eh/α   predicted    -0.1469803E-02 (-365.20%)
   displ. norm   :     0.1666146 α      lambda       -0.3355290E-02
   maximum displ.:     0.0919178 α      in ANC's #6, #12, #1, ...

........................................................................
.............................. CYCLE   11 ..............................
........................................................................

 iter      E             dE          RMSdq      gap      omega  full diag
   1    -18.1519165 -0.181519E+02  0.179E-01    3.86       0.0  T
   2    -18.1519320 -0.155088E-04  0.112E-01    3.86       1.0  T
   3    -18.1518988  0.332705E-04  0.485E-02    3.86       1.0  T
   4    -18.1519392 -0.404040E-04  0.735E-03    3.86       3.4  T
   5    -18.1519397 -0.521042E-06  0.261E-03    3.86       9.6  T
   6    -18.1519397 -0.136266E-07  0.110E-03    3.86      22.8  T
   7    -18.1519397 -0.472806E-08  0.670E-04    3.86      37.3  T
   8    -18.1519397 -0.382643E-08  0.122E-04    3.86     205.7  T
     SCC iter.                  ...        0 min,  0.004 sec
     gradient                   ...        0 min,  0.003 sec
 * total energy  :   -17.8107552 Eh     change       -0.1699285E-02 Eh
   gradient norm :     0.0223265 Eh/α   predicted    -0.1724216E-02 (   1.47%)
   displ. norm   :     0.1608754 α      lambda       -0.8383187E-03
   maximum displ.:     0.0952644 α      in ANC's #7, #1, #11, ...

........................................................................
.............................. CYCLE   12 ..............................
........................................................................

 iter      E             dE          RMSdq      gap      omega  full diag
   1    -18.1491943 -0.181492E+02  0.179E-01    3.85       0.0  T
   2    -18.1491983 -0.405471E-05  0.105E-01    3.85       1.0  T
   3    -18.1491961  0.225206E-05  0.148E-02    3.85       1.7  T
   4    -18.1491989 -0.286973E-05  0.423E-03    3.85       5.9  T
   5    -18.1491991 -0.172638E-06  0.167E-03    3.85      15.0  T
   6    -18.1491991 -0.144843E-07  0.731E-04    3.85      34.2  T
   7    -18.1491991 -0.403215E-09  0.201E-04    3.85     124.5  T
     SCC iter.                  ...        0 min,  0.003 sec
     gradient                   ...        0 min,  0.004 sec
 * total energy  :   -17.8106830 Eh     change        0.7219024E-04 Eh
   gradient norm :     0.0434611 Eh/α   predicted    -0.4300045E-03 (-695.65%)
   displ. norm   :     0.1536841 α      lambda       -0.1006278E-02
   maximum displ.:     0.1247888 α      in ANC's #1, #2, #7, ...

........................................................................
.............................. CYCLE   13 ..............................
........................................................................

 iter      E             dE          RMSdq      gap      omega  full diag
   1    -18.1486743 -0.181487E+02  0.100E-01    3.85       0.0  T
   2    -18.1486753 -0.104736E-05  0.594E-02    3.85       1.0  T
   3    -18.1486742  0.110483E-05  0.101E-02    3.85       2.5  T
   4    -18.1486757 -0.144489E-05  0.240E-03    3.85      10.4  T
   5    -18.1486757 -0.296083E-07  0.125E-03    3.85      20.0  T
   6    -18.1486757 -0.558863E-08  0.262E-04    3.85      95.5  T
   7    -18.1486757 -0.660414E-10  0.151E-04    3.85     165.1  T
     SCC iter.                  ...        0 min,  0.004 sec
     gradient                   ...        0 min,  0.004 sec
 * total energy  :   -17.8112425 Eh     change       -0.5594897E-03 Eh
   gradient norm :     0.0114737 Eh/α   predicted    -0.5150218E-03 (  -7.95%)
   displ. norm   :     0.1664831 α      lambda       -0.5073606E-03
   maximum displ.:     0.1310967 α      in ANC's #1, #4, #3, ...

........................................................................
.............................. CYCLE   14 ..............................
........................................................................

 iter      E             dE          RMSdq      gap      omega  full diag
   1    -18.1549679 -0.181550E+02  0.933E-02    3.86       0.0  T
   2    -18.1549698 -0.198634E-05  0.570E-02    3.86       1.0  T
   3    -18.1549650  0.480141E-05  0.190E-02    3.86       1.3  T
   4    -18.1549707 -0.569156E-05  0.313E-03    3.86       8.0  T
   5    -18.1549708 -0.603828E-07  0.172E-03    3.86      14.5  T
   6    -18.1549708 -0.705943E-08  0.623E-04    3.86      40.2  T
   7    -18.1549708 -0.263308E-08  0.290E-04    3.86      86.2  T
     SCC iter.                  ...        0 min,  0.002 sec
     gradient                   ...        0 min,  0.005 sec
 * total energy  :   -17.8112988 Eh     change       -0.5626660E-04 Eh
   gradient norm :     0.0272007 Eh/α   predicted    -0.2607147E-03 ( 363.36%)
   displ. norm   :     0.1516929 α      lambda       -0.6484083E-03
   maximum displ.:     0.1222530 α      in ANC's #1, #2, #8, ...

........................................................................
.............................. CYCLE   15 ..............................
........................................................................

 iter      E             dE          RMSdq      gap      omega  full diag
   1    -18.1500698 -0.181501E+02  0.108E-01    3.86       0.0  T
   2    -18.1500721 -0.234639E-05  0.631E-02    3.86       1.0  T
   3    -18.1500648  0.734621E-05  0.240E-02    3.86       1.0  T
   4    -18.1500734 -0.863538E-05  0.329E-03    3.86       7.6  T
   5    -18.1500735 -0.863579E-07  0.144E-03    3.86      17.4  T
   6    -18.1500735 -0.258615E-08  0.699E-04    3.86      35.8  T
   7    -18.1500735 -0.201510E-08  0.282E-04    3.86      88.8  T
     SCC iter.                  ...        0 min,  0.003 sec
     gradient                   ...        0 min,  0.003 sec
 * total energy  :   -17.8115828 Eh     change       -0.2839935E-03 Eh
   gradient norm :     0.0206016 Eh/α   predicted    -0.3316635E-03 (  16.79%)
   displ. norm   :     0.1550336 α      lambda       -0.5300518E-03
   maximum displ.:     0.1090486 α      in ANC's #1, #9, #15, ...

........................................................................
.............................. CYCLE   16 ..............................
........................................................................

 iter      E             dE          RMSdq      gap      omega  full diag
   1    -18.1494727 -0.181495E+02  0.117E-01    3.86       0.0  T
   2    -18.1494736 -0.923754E-06  0.688E-02    3.86       1.0  T
   3    -18.1494690  0.466800E-05  0.197E-02    3.86       1.3  T
   4    -18.1494744 -0.541421E-05  0.207E-03    3.86      12.1  T
   5    -18.1494744 -0.125199E-08  0.108E-03    3.86      23.2  T
   6    -18.1494744 -0.222670E-08  0.423E-04    3.86      59.1  T
   7    -18.1494744 -0.169037E-08  0.156E-04    3.86     159.9  T
     SCC iter.                  ...        0 min,  0.003 sec
     gradient                   ...        0 min,  0.004 sec
 * total energy  :   -17.8118038 Eh     change       -0.2210329E-03 Eh
   gradient norm :     0.0104886 Eh/α   predicted    -0.2713966E-03 (  22.79%)
   displ. norm   :     0.1765750 α      lambda       -0.3397494E-03
   maximum displ.:     0.1601814 α      in ANC's #1, #2, #5, ...

........................................................................
.............................. CYCLE   17 ..............................
........................................................................

 iter      E             dE          RMSdq      gap      omega  full diag
   1    -18.1479175 -0.181479E+02  0.738E-02    3.85       0.0  T
   2    -18.1479184 -0.915123E-06  0.423E-02    3.85       1.0  T
   3    -18.1479130  0.537832E-05  0.231E-02    3.85       1.1  T
   4    -18.1479196 -0.659159E-05  0.158E-03    3.85      15.9  T
   5    -18.1479196 -0.703926E-08  0.916E-04    3.85      27.3  T
   6    -18.1479196 -0.830745E-09  0.380E-04    3.85      65.8  T
     SCC iter.                  ...        0 min,  0.003 sec
     gradient                   ...        0 min,  0.003 sec
 * total energy  :   -17.8119669 Eh     change       -0.1630826E-03 Eh
   gradient norm :     0.0152761 Eh/α   predicted    -0.1751704E-03 (   7.41%)
   displ. norm   :     0.2045297 α      lambda       -0.3955721E-03
   maximum displ.:     0.1642422 α      in ANC's #1, #4, #8, ...

........................................................................
.............................. CYCLE   18 ..............................
........................................................................

 iter      E             dE          RMSdq      gap      omega  full diag
   1    -18.1522144 -0.181522E+02  0.810E-02    3.87       0.0  T
   2    -18.1522165 -0.208719E-05  0.485E-02    3.87       1.0  T
   3    -18.1522104  0.610913E-05  0.218E-02    3.87       1.1  T
   4    -18.1522176 -0.723516E-05  0.319E-03    3.87       7.8  T
   5    -18.1522178 -0.125971E-06  0.105E-03    3.87      23.8  T
   6    -18.1522178  0.120371E-08  0.612E-04    3.87      40.9  T
   7    -18.1522178 -0.325434E-08  0.129E-04    3.87     194.5  T
     SCC iter.                  ...        0 min,  0.002 sec
     gradient                   ...        0 min,  0.003 sec
 * total energy  :   -17.8121219 Eh     change       -0.1550339E-03 Eh
   gradient norm :     0.0125253 Eh/α   predicted    -0.2060623E-03 (  32.91%)
   displ. norm   :     0.1089418 α      lambda       -0.1886731E-03
   maximum displ.:     0.0862253 α      in ANC's #1, #10, #11, ...

........................................................................
.............................. CYCLE   19 ..............................
........................................................................

 iter      E             dE          RMSdq      gap      omega  full diag
   1    -18.1523591 -0.181524E+02  0.613E-02    3.86       0.0  T
   2    -18.1523596 -0.479182E-06  0.358E-02    3.86       1.0  T
   3    -18.1523564  0.317481E-05  0.181E-02    3.86       1.4  T
   4    -18.1523601 -0.371121E-05  0.146E-03    3.86      17.1  T
   5    -18.1523601 -0.126802E-07  0.887E-04    3.86      28.2  T
   6    -18.1523601  0.904450E-10  0.318E-04    3.86      78.6  T
     SCC iter.                  ...        0 min,  0.003 sec
     gradient                   ...        0 min,  0.004 sec
 * total energy  :   -17.8121702 Eh     change       -0.4833445E-04 Eh
   gradient norm :     0.0095375 Eh/α   predicted    -0.9545384E-04 (  97.49%)
   displ. norm   :     0.0879616 α      lambda       -0.1591654E-03
   maximum displ.:     0.0583868 α      in ANC's #1, #4, #2, ...

........................................................................
.............................. CYCLE   20 ..............................
........................................................................

 iter      E             dE          RMSdq      gap      omega  full diag
   1    -18.1507971 -0.181508E+02  0.800E-02    3.86       0.0  T
   2    -18.1507976 -0.592326E-06  0.472E-02    3.86       1.0  T
   3    -18.1507962  0.147754E-05  0.110E-02    3.86       2.3  T
   4    -18.1507979 -0.173381E-05  0.180E-03    3.86      13.9  T
   5    -18.1507979 -0.231959E-07  0.109E-03    3.86      23.0  T
   6    -18.1507979 -0.231393E-08  0.379E-04    3.86      65.9  T
   7    -18.1507979 -0.166033E-08  0.975E-05    3.86     256.5  T
     SCC iter.                  ...        0 min,  0.003 sec
     gradient                   ...        0 min,  0.003 sec
 * total energy  :   -17.8121995 Eh     change       -0.2925819E-04 Eh
   gradient norm :     0.0123446 Eh/α   predicted    -0.8019836E-04 ( 174.11%)
   displ. norm   :     0.0600704 α      lambda       -0.1241572E-03
   maximum displ.:     0.0378459 α      in ANC's #1, #10, #2, ...
 * RMSD in coord.:     1.0232324 α      energy gain  -0.1618732E+00 Eh

generating ANC from model Hessian ...
Using Lindh-Hessian (1995)
 Shifting diagonal of input Hessian by    9.0281239741606869E-003
 Lowest  eigenvalues of input Hessian
    0.000000    0.000000    0.000000    0.000000    0.000000    0.000000
    0.010000    0.010870    0.012325    0.013193    0.016947    0.020864
    0.023525    0.026026    0.026261    0.032373    0.032662    0.050453
 Highest eigenvalues
    1.495550    1.746912    1.863647    1.949365    8.180976    8.225983


........................................................................
.............................. CYCLE   21 ..............................
........................................................................

 iter      E             dE          RMSdq      gap      omega  full diag
   1    -18.1500983 -0.181501E+02  0.490E-02    3.86       0.0  T
   2    -18.1500989 -0.679480E-06  0.289E-02    3.86       1.0  T
   3    -18.1500981  0.889426E-06  0.868E-03    3.86       2.9  T
   4    -18.1500991 -0.103622E-05  0.196E-03    3.86      12.7  T
   5    -18.1500991 -0.522168E-07  0.633E-04    3.86      39.5  T
   6    -18.1500991 -0.421657E-09  0.265E-04    3.86      94.2  T
     SCC iter.                  ...        0 min,  0.004 sec
     gradient                   ...        0 min,  0.004 sec
 * total energy  :   -17.8122126 Eh     change       -0.1307685E-04 Eh
   gradient norm :     0.0186613 Eh/α   predicted     0.0000000E+00 (-100.00%)
   displ. norm   :     0.0557581 α      lambda       -0.1441460E-03
   maximum displ.:     0.0437651 α      in ANC's #1, #2, #12, ...

........................................................................
.............................. CYCLE   22 ..............................
........................................................................

 iter      E             dE          RMSdq      gap      omega  full diag
   1    -18.1517172 -0.181517E+02  0.459E-02    3.86       0.0  T
   2    -18.1517175 -0.223551E-06  0.272E-02    3.86       1.0  T
   3    -18.1517164  0.107679E-05  0.860E-03    3.86       2.9  T
   4    -18.1517176 -0.123254E-05  0.889E-04    3.86      28.1  T
   5    -18.1517176 -0.440944E-08  0.432E-04    3.86      57.8  T
   6    -18.1517176 -0.692634E-09  0.246E-04    3.86     101.7  T
     SCC iter.                  ...        0 min,  0.003 sec
     gradient                   ...        0 min,  0.003 sec
 * total energy  :   -17.8122690 Eh     change       -0.5639369E-04 Eh
   gradient norm :     0.0117254 Eh/α   predicted    -0.7229616E-04 (  28.20%)
   displ. norm   :     0.0252136 α      lambda       -0.2836626E-04
   maximum displ.:     0.0212961 α      in ANC's #1, #4, #5, ...

........................................................................
.............................. CYCLE   23 ..............................
........................................................................

 iter      E             dE          RMSdq      gap      omega  full diag
   1    -18.1523464 -0.181523E+02  0.164E-02    3.86       0.0  T
   2    -18.1523465 -0.255699E-07  0.972E-03    3.86       2.6  T
   3    -18.1523464  0.682092E-07  0.227E-03    3.86      11.0  T
   4    -18.1523465 -0.795989E-07  0.354E-04    3.86      70.7  T
   5    -18.1523465 -0.104292E-08  0.181E-04    3.86     138.4  T
     SCC iter.                  ...        0 min,  0.002 sec
     gradient                   ...        0 min,  0.003 sec
 * total energy  :   -17.8122856 Eh     change       -0.1665401E-04 Eh
   gradient norm :     0.0011252 Eh/α   predicted    -0.1419165E-04 ( -14.79%)
   displ. norm   :     0.0306653 α      lambda       -0.4634679E-05
   maximum displ.:     0.0276546 α      in ANC's #1, #2, #4, ...

........................................................................
.............................. CYCLE   24 ..............................
........................................................................

 iter      E             dE          RMSdq      gap      omega  full diag
   1    -18.1524146 -0.181524E+02  0.114E-02    3.86       0.0  T
   2    -18.1524146 -0.217052E-07  0.667E-03    3.86       3.7  T
   3    -18.1524145  0.100734E-06  0.286E-03    3.86       8.8  T
   4    -18.1524146 -0.118531E-06  0.239E-04    3.86     104.6  T
   5    -18.1524146 -0.603983E-09  0.103E-04    3.86     242.5  T
     SCC iter.                  ...        0 min,  0.003 sec
     gradient                   ...        0 min,  0.004 sec
 * total energy  :   -17.8122904 Eh     change       -0.4788727E-05 Eh
   gradient norm :     0.0019977 Eh/α   predicted    -0.2319261E-05 ( -51.57%)
   displ. norm   :     0.0299137 α      lambda       -0.3148772E-05
   maximum displ.:     0.0230623 α      in ANC's #1, #2, #10, ...

........................................................................
.............................. CYCLE   25 ..............................
........................................................................

 iter      E             dE          RMSdq      gap      omega  full diag
   1    -18.1522624 -0.181523E+02  0.797E-03    3.86       0.0  T
   2    -18.1522625 -0.118689E-07  0.471E-03    3.86       5.3  T
   3    -18.1522624  0.760037E-07  0.243E-03    3.86      10.3  T
   4    -18.1522625 -0.913094E-07  0.176E-04    3.86     141.8  T
   5    -18.1522625 -0.264521E-09  0.854E-05    3.86     292.8  T
     SCC iter.                  ...        0 min,  0.002 sec
     gradient                   ...        0 min,  0.003 sec
 * total energy  :   -17.8122941 Eh     change       -0.3644783E-05 Eh
   gradient norm :     0.0007484 Eh/α   predicted    -0.1576634E-05 ( -56.74%)
   displ. norm   :     0.0321887 α      lambda       -0.2516414E-05
   maximum displ.:     0.0244923 α      in ANC's #1, #2, #5, ...

   *** GEOMETRY OPTIMIZATION CONVERGED AFTER 25 ITERATIONS ***

------------------------------------------------------------------------
 total energy gain   :        -0.1619678 Eh     -101.6363 kcal/mol
 total RMSD          :         1.0301398 a0        0.5451 Å
 total power (kW/mol):       -17.0098510 (step)-1926.2080 (real)
------------------------------------------------------------------------

 ANCopt (total)                0 d,  0 h,  0 min,  0.221 sec
 optimizer setup                ...        0 min,  0.000 sec (  0.042%)
 model hessian                  ...        0 min,  0.012 sec (  5.398%)
 ANC generation                 ...        0 min,  0.001 sec (  0.322%)
 coordinate transformation      ...        0 min,  0.000 sec (  0.097%)
 single point calculation       ...        0 min,  0.199 sec ( 90.039%)
 optimization log               ...        0 min,  0.004 sec (  1.589%)
 hessian update                 ...        0 min,  0.000 sec (  0.129%)
 rational function              ...        0 min,  0.003 sec (  1.513%)

================
 final structure:
================
16
 xtb: 6.6.1 (8d0f1dd)
C           -1.57093908864382       -1.78063349954322       -0.41636671978774
C           -0.22144649371009       -1.91642315110702       -0.81438367564163
C            0.48243344950539       -0.88918825018921       -1.35165493799287
C            0.35718955575460        0.56791687642488        0.42323842810535
C           -0.93784776502072        0.70915737873585        0.79030265377588
C           -2.25308422071214       -0.61591954039877       -0.54882432620796
H           -1.98799294782506       -2.56981671723238        0.19529398464820
H            0.30523332718458       -2.80201599525252       -0.48455753300972
H            1.54184483216848       -0.98642673704761       -1.52588594524414
H           -0.00379316104813       -0.10110800693567       -1.89635294562287
H            0.83245374317028        1.28922378251634       -0.21886335663353
H            1.01380087797708       -0.08642461820408        0.96954179532185
H           -1.52169595361051        1.54486109930744        0.44482701634026
H           -1.32979181707138        0.17397023543323        1.63731096355047
H           -3.23643946655169       -0.50929031319095       -0.11997742969221
H           -2.00465487156661        0.09480745668161       -1.31519797191121

 Bond Distances (Angstroems)
 ---------------------------
C1-C2=1.4135         C1-C6=1.3563         C1-H7=1.0821         C2-C1=1.4135         C2-C3=1.3562         C2-H8=1.0819         
C3-C2=1.3562         C3-H9=1.0780         C3-H10=1.0743        C4-C5=1.3534         C4-H11=1.0763        C4-H12=1.0760        
C5-C4=1.3534         C5-H13=1.0764        C5-H14=1.0759        C6-C1=1.3563         C6-H15=1.0781        C6-H16=1.0743        
H7-C1=1.0821         H8-C2=1.0819         H9-C3=1.0780         H10-C3=1.0743        H11-C4=1.0763        H12-C4=1.0760        
H13-C5=1.0764        H14-C5=1.0759        H15-C6=1.0781        H16-C6=1.0743        
 C  H  Rav=1.0773 sigma=0.0026  Rmin=1.0743  Rmax=1.0821    10
 C  C  Rav=1.3699 sigma=0.0252  Rmin=1.3534  Rmax=1.4135     4

 selected bond angles (degree)
 --------------------
C6-C1-C2=122.36                H7-C1-C2=117.20                H7-C1-C6=119.19                C3-C2-C1=122.30                
H8-C2-C1=117.23                H8-C2-C3=119.22                H9-C3-C2=120.38                H10-C3-C2=121.44               
H10-C3-H9=115.40               H11-C4-C5=120.96               H12-C4-C5=120.64               H12-C4-H11=116.17              
H13-C5-C4=120.86               H14-C5-C4=120.68               H14-C5-H13=116.19              H15-C6-C1=120.32               
H16-C6-C1=121.43               H16-C6-H15=115.42              

 selected dihedral angles (degree)
 ---------------------------------
C3-C2-C1-C6=  0.21            C3-C2-C1-H7=193.13            H8-C2-C1-C6=167.29            H8-C2-C1-H7=  0.21            
H9-C3-C2-C1=172.03            H9-C3-C2-H8=  5.19            H10-C3-C2-C1=332.28           H10-C3-C2-H8=165.45           
H13-C5-C4-H11=  0.21          H13-C5-C4-H12=162.58          H14-C5-C4-H11=197.99          H14-C5-C4-H12=  0.36          
H15-C6-C1-C2=187.96           H15-C6-C1-H7=354.79           H16-C6-C1-C2= 27.87           H16-C6-C1-H7=194.70           

 CMA Distance (Angstroems)
 ---------------------------
R(CMA):  2.4713
           -------------------------------------------------
          |                Final Singlepoint                |
           -------------------------------------------------

          ...................................................
          :                      SETUP                      :
          :.................................................:
          :  # basis functions                  34          :
          :  # atomic orbitals                  34          :
          :  # shells                           22          :
          :  # electrons                        34          :
          :  max. iterations                   250          :
          :  Hamiltonian                  GFN2-xTB          :
          :  restarted?                      false          :
          :  GBSA solvation                  false          :
          :  PC potential                    false          :
          :  electronic temp.          300.0000000     K    :
          :  accuracy                    1.0000000          :
          :  -> integral cutoff          0.2500000E+02      :
          :  -> integral neglect         0.1000000E-07      :
          :  -> SCF convergence          0.1000000E-05 Eh   :
          :  -> wf. convergence          0.1000000E-03 e    :
          :  Broyden damping             0.4000000          :
          ...................................................

 iter      E             dE          RMSdq      gap      omega  full diag
   1    -18.1522625 -0.181523E+02  0.453E-05    3.86       0.0  T
   2    -18.1522625 -0.439115E-11  0.358E-05    3.86     698.7  T
   3    -18.1522625 -0.103100E-10  0.157E-05    3.86    1590.8  T

   *** convergence criteria satisfied after 3 iterations ***

         #    Occupation            Energy/Eh            Energy/eV
      -------------------------------------------------------------
         1        2.0000           -0.6207067             -16.8903
       ...           ...                  ...                  ...
        11        2.0000           -0.4668601             -12.7039
        12        2.0000           -0.4547580             -12.3746
        13        2.0000           -0.4376698             -11.9096
        14        2.0000           -0.4290575             -11.6752
        15        2.0000           -0.4210229             -11.4566
        16        2.0000           -0.3814507             -10.3798
        17        2.0000           -0.3787316             -10.3058 (HOMO)
        18                         -0.2367696              -6.4428 (LUMO)
        19                         -0.2039112              -5.5487
        20                         -0.1258177              -3.4237
        21                          0.1238262               3.3695
        22                          0.1416021               3.8532
       ...                                ...                  ...
        34                          0.6160070              16.7624
      -------------------------------------------------------------
                  HL-Gap            0.1419620 Eh            3.8630 eV
             Fermi-level           -0.3077506 Eh           -8.3743 eV

 SCC (total)                   0 d,  0 h,  0 min,  0.007 sec
 SCC setup                      ...        0 min,  0.000 sec (  1.492%)
 Dispersion                     ...        0 min,  0.000 sec (  0.709%)
 classical contributions        ...        0 min,  0.000 sec (  0.326%)
 integral evaluation            ...        0 min,  0.001 sec ( 17.419%)
 iterations                     ...        0 min,  0.002 sec ( 34.657%)
 molecular gradient             ...        0 min,  0.003 sec ( 42.821%)
 printout                       ...        0 min,  0.000 sec (  2.127%)

         :::::::::::::::::::::::::::::::::::::::::::::::::::::
         ::                     SUMMARY                     ::
         :::::::::::::::::::::::::::::::::::::::::::::::::::::
         :: total energy             -17.812294065602 Eh    ::
         :: gradient norm              0.000748363959 Eh/a0 ::
         :: HOMO-LUMO gap              3.862982344874 eV    ::
         ::.................................................::
         :: SCC energy               -18.152262474985 Eh    ::
         :: -> isotropic ES            0.002964019164 Eh    ::
         :: -> anisotropic ES          0.006274962068 Eh    ::
         :: -> anisotropic XC          0.017111068232 Eh    ::
         :: -> dispersion             -0.011151930808 Eh    ::
         :: repulsion energy           0.339939882915 Eh    ::
         :: add. restraining           0.000000360624 Eh    ::
         :: total charge              -0.000000000000 e     ::
         :::::::::::::::::::::::::::::::::::::::::::::::::::::

           -------------------------------------------------
          |                Property Printout                |
           -------------------------------------------------

    * Orbital Energies and Occupations

         #    Occupation            Energy/Eh            Energy/eV
      -------------------------------------------------------------
         1        2.0000           -0.6207067             -16.8903
       ...           ...                  ...                  ...
         5        2.0000           -0.5471129             -14.8877
         6        2.0000           -0.5229920             -14.2313
         7        2.0000           -0.5169754             -14.0676
         8        2.0000           -0.5029685             -13.6865
         9        2.0000           -0.4787663             -13.0279
        10        2.0000           -0.4669228             -12.7056
        11        2.0000           -0.4668601             -12.7039
        12        2.0000           -0.4547580             -12.3746
        13        2.0000           -0.4376698             -11.9096
        14        2.0000           -0.4290575             -11.6752
        15        2.0000           -0.4210229             -11.4566
        16        2.0000           -0.3814507             -10.3798
        17        2.0000           -0.3787316             -10.3058 (HOMO)
        18                         -0.2367696              -6.4428 (LUMO)
        19                         -0.2039112              -5.5487
        20                         -0.1258177              -3.4237
        21                          0.1238262               3.3695
        22                          0.1416021               3.8532
        23                          0.1444685               3.9312
        24                          0.1647608               4.4834
        25                          0.1723331               4.6894
        26                          0.2005892               5.4583
        27                          0.2103499               5.7239
        28                          0.2883847               7.8473
       ...                                ...                  ...
        34                          0.6160070              16.7624
      -------------------------------------------------------------
                  HL-Gap            0.1419620 Eh            3.8630 eV
             Fermi-level           -0.3077506 Eh           -8.3743 eV

     #   Z          covCN         q      C6AA      α(0)
     1   6 C        2.898    -0.034    28.835     8.804
     2   6 C        2.898    -0.033    28.831     8.804
     3   6 C        2.899    -0.074    29.835     8.956
     4   6 C        2.887    -0.077    29.914     8.967
     5   6 C        2.889    -0.077    29.915     8.967
     6   6 C        2.900    -0.074    29.835     8.956
     7   1 H        0.925     0.028     2.621     2.532
     8   1 H        0.925     0.028     2.621     2.532
     9   1 H        0.926     0.034     2.525     2.485
    10   1 H        0.926     0.048     2.348     2.396
    11   1 H        0.926     0.039     2.456     2.451
    12   1 H        0.926     0.035     2.521     2.483
    13   1 H        0.926     0.039     2.462     2.454
    14   1 H        0.926     0.035     2.514     2.479
    15   1 H        0.926     0.034     2.525     2.485
    16   1 H        0.926     0.048     2.348     2.396

 Mol. C6AA /au·bohr⁶  :       2340.461490
 Mol. C8AA /au·bohr⁸  :      52981.040499
 Mol. α(0) /au        :         78.146095


Wiberg/Mayer (AO) data.
largest (>0.10) Wiberg bond orders for each atom

 ---------------------------------------------------------------------------
     #   Z sym  total        # sym  WBO       # sym  WBO       # sym  WBO
 ---------------------------------------------------------------------------
     1   6 C    3.990 --     6 C    1.654     2 C    1.267     7 H    0.968
     2   6 C    3.990 --     3 C    1.654     1 C    1.267     8 H    0.968
     3   6 C    3.992 --     2 C    1.654     9 H    0.981    10 H    0.968
                             4 C    0.225     6 C    0.138
     4   6 C    3.993 --     5 C    1.730    12 H    0.978    11 H    0.974
                             3 C    0.225
     5   6 C    3.993 --     4 C    1.730    14 H    0.978    13 H    0.975
                             6 C    0.225
     6   6 C    3.992 --     1 C    1.654    15 H    0.981    16 H    0.968
                             5 C    0.225     3 C    0.138
     7   1 H    0.999 --     1 C    0.968
     8   1 H    0.999 --     2 C    0.968
     9   1 H    0.999 --     3 C    0.981
    10   1 H    0.998 --     3 C    0.968
    11   1 H    0.998 --     4 C    0.974
    12   1 H    0.999 --     4 C    0.978
    13   1 H    0.998 --     5 C    0.975
    14   1 H    0.999 --     5 C    0.978
    15   1 H    0.999 --     6 C    0.981
    16   1 H    0.998 --     6 C    0.968
 ---------------------------------------------------------------------------

Topologies differ in total number of bonds
Writing topology from bond orders to xtbtopo.mol

molecular dipole:
                 x           y           z       tot (Debye)
 q only:       -0.007       0.096      -0.057
   full:        0.003       0.110      -0.027       0.289
molecular quadrupole (traceless):
                xx          xy          yy          xz          yz          zz
 q only:        0.644      -0.488      -0.348      -0.309      -0.795      -0.296
  q+dip:        1.953      -1.579       0.055      -1.723      -3.946      -2.008
   full:        1.156      -1.020      -0.276      -0.905      -2.308      -0.880

           -------------------------------------------------
          |                Geometry Summary                 |
           -------------------------------------------------

      molecular mass/u    :       82.1438229
   center of mass at/Å    :       -0.6842950      -0.6224063      -0.3087888
  moments of inertia/u·Å² :        0.1164806E+03   0.1421170E+03   0.2177652E+03
rotational constants/cm⁻¹ :        0.1447248E+00   0.1186180E+00   0.7741195E-01

 * 14 selected distances

     #   Z          #   Z                                           value/Å
     1   6 C        2   6 C                                       1.4135017 (max)
     2   6 C        3   6 C                                       1.3562151
     4   6 C        5   6 C                                       1.3534427
     1   6 C        6   6 C                                       1.3562544
     1   6 C        7   1 H                                       1.0820689
     2   6 C        8   1 H                                       1.0818742
     3   6 C        9   1 H                                       1.0780373
     3   6 C       10   1 H                                       1.0743291
     4   6 C       11   1 H                                       1.0763153
     4   6 C       12   1 H                                       1.0759874
     5   6 C       13   1 H                                       1.0763982
     5   6 C       14   1 H                                       1.0758572
     6   6 C       15   1 H                                       1.0780850
     6   6 C       16   1 H                                       1.0743271 (min)

 * 2 distinct bonds (by element types)

   Z      Z             #   av. dist./Å        max./Å        min./Å
   1 H    6 C          10     1.0773280     1.0820689     1.0743271
   6 C    6 C           4     1.3698534     1.4135017     1.3534427


optimized geometry written to: xtbopt.xyz


           -------------------------------------------------
          | TOTAL ENERGY              -17.812294065602 Eh   |
          | GRADIENT NORM               0.000748363959 Eh/α |
          | HOMO-LUMO GAP               3.862982344874 eV   |
           -------------------------------------------------

------------------------------------------------------------------------
 * finished run on 2025/05/23 at 13:00:53.499     
------------------------------------------------------------------------
 total:
 * wall-time:     0 d,  0 h,  0 min,  0.247 sec
 *  cpu-time:     0 d,  0 h,  0 min,  0.247 sec
 * ratio c/w:     1.000 speedup
 SCF:
 * wall-time:     0 d,  0 h,  0 min,  0.011 sec
 *  cpu-time:     0 d,  0 h,  0 min,  0.011 sec
 * ratio c/w:     1.000 speedup
 ANC optimizer:
 * wall-time:     0 d,  0 h,  0 min,  0.229 sec
 *  cpu-time:     0 d,  0 h,  0 min,  0.229 sec
 * ratio c/w:     1.000 speedup

