      -----------------------------------------------------------      
     |                   =====================                   |     
     |                           x T B                           |     
     |                   =====================                   |     
     |                         S. Grimme                         |     
     |          Mulliken Center for Theoretical Chemistry        |     
     |                    University of Bonn                     |     
      -----------------------------------------------------------      

   * xtb version 6.6.1 (8d0f1dd) compiled by 'conda@1efc2f54142f' on 2023-08-01

   xtb is free software: you can redistribute it and/or modify it under
   the terms of the GNU Lesser General Public License as published by
   the Free Software Foundation, either version 3 of the License, or
   (at your option) any later version.
   
   xtb is distributed in the hope that it will be useful,
   but WITHOUT ANY WARRANTY; without even the implied warranty of
   MERCHANTABILITY or FITNESS FOR A PARTICULAR PURPOSE.  See the
   GNU Lesser General Public License for more details.
   
   Cite this work as:
   * C. Bannwarth, E. Caldeweyher, S. Ehlert, A. Hansen, P. Pracht,
     J. Seibert, S. Spicher, S. Grimme, WIREs Comput. Mol. Sci., 2020, 11,
     e01493. DOI: 10.1002/wcms.1493
   
   for GFN2-xTB:
   * C. Bannwarth, S. Ehlert and S. Grimme., J. Chem. Theory Comput., 2019,
     15, 1652-1671. DOI: 10.1021/acs.jctc.8b01176
   for GFN1-xTB:
   * S. Grimme, C. Bannwarth, P. Shushkov, J. Chem. Theory Comput., 2017,
     13, 1989-2009. DOI: 10.1021/acs.jctc.7b00118
   for GFN0-xTB:
   * P. Pracht, E. Caldeweyher, S. Ehlert, S. Grimme, ChemRxiv, 2019, preprint.
     DOI: 10.26434/chemrxiv.8326202.v1
   for GFN-FF:
   * S. Spicher and S. Grimme, Angew. Chem. Int. Ed., 2020, 59, 15665-15673.
     DOI: 10.1002/anie.202004239
   
   for ALPB and GBSA implicit solvation:
   * S. Ehlert, M. Stahn, S. Spicher, S. Grimme, J. Chem. Theory Comput.,
     2021, 17, 4250-4261. DOI: 10.1021/acs.jctc.1c00471
   
   for DFT-D4:
   * E. Caldeweyher, C. Bannwarth and S. Grimme, J. Chem. Phys., 2017,
     147, 034112. DOI: 10.1063/1.4993215
   * E. Caldeweyher, S. Ehlert, A. Hansen, H. Neugebauer, S. Spicher,
     C. Bannwarth and S. Grimme, J. Chem. Phys., 2019, 150, 154122.
     DOI: 10.1063/1.5090222
   * E. Caldeweyher, J.-M. Mewes, S. Ehlert and S. Grimme, Phys. Chem. Chem. Phys.
     2020, 22, 8499-8512. DOI: 10.1039/D0CP00502A
   
   for sTDA-xTB:
   * S. Grimme and C. Bannwarth, J. Chem. Phys., 2016, 145, 054103.
     DOI: 10.1063/1.4959605
   
   in the mass-spec context:
   * V. Asgeirsson, C. Bauer and S. Grimme, Chem. Sci., 2017, 8, 4879.
     DOI: 10.1039/c7sc00601b
   * J. Koopman and S. Grimme, ACS Omega 2019, 4, 12, 15120-15133.
     DOI: 10.1021/acsomega.9b02011
   
   for metadynamics refer to:
   * S. Grimme, J. Chem. Theory Comput., 2019, 155, 2847-2862
     DOI: 10.1021/acs.jctc.9b00143
   
   for SPH calculations refer to:
   * S. Spicher and S. Grimme, J. Chem. Theory Comput., 2021, 17, 1701-1714
     DOI: 10.1021/acs.jctc.0c01306
   
   with help from (in alphabetical order)
   P. Atkinson, C. Bannwarth, F. Bohle, G. Brandenburg, E. Caldeweyher
   M. Checinski, S. Dohm, S. Ehlert, S. Ehrlich, I. Gerasimov, C. Hölzer
   A. Katbashev, J. Koopman, C. Lavigne, S. Lehtola, F. März, M. Müller,
   F. Musil, H. Neugebauer, J. Pisarek, C. Plett, P. Pracht, F. Pultar,
   J. Seibert, P. Shushkov, S. Spicher, M. Stahn, M. Steiner, T. Strunk,
   J. Stückrath, T. Rose, and J. Unsleber
   
 * started run on 2025/05/23 at 13:00:52.679     

           -------------------------------------------------
          |                Calculation Setup                |
           -------------------------------------------------

          program call               : /home/avcopan/code/other/saddle-search-practice/.pixi/envs/default/bin/xtb TS_5ZPuRE_ll_ad_2-3_4-5_conf3_opt_xtb.xyz --chrg 0 --uhf 0 --opt --input xcontrol_TS_5ZPuRE_ll_ad_2-3_4-5_conf3_opt_xtb
          coordinate file            : TS_5ZPuRE_ll_ad_2-3_4-5_conf3_opt_xtb.xyz
          omp threads                :                     1

   ID    Z sym.   atoms
    1    6 C      1-6
    2    1 H      7-16
constraining bond 3 4 to    2.3000000 Å, actual value:    2.3000535 Å
constraining bond 5 6 to    2.2977000 Å, actual value:    2.2977315 Å

molecular fragmentation (1/2 indicates fragments):
1112211111222211
# atoms in fragment 1/2:    10     6
 fragment masses (1/2) :       54.09       28.05
CMA distance (Bohr)    :   4.550
constraining FC (au)   :  2.0000

           -------------------------------------------------
          |                 G F N 2 - x T B                 |
           -------------------------------------------------

        Reference                      10.1021/acs.jctc.8b01176
      * Hamiltonian:
        H0-scaling (s, p, d)           1.850000    2.230000    2.230000
        zeta-weighting                 0.500000
      * Dispersion:
        s8                             2.700000
        a1                             0.520000
        a2                             5.000000
        s9                             5.000000
      * Repulsion:
        kExp                           1.500000    1.000000
        rExp                           1.000000
      * Coulomb:
        alpha                          2.000000
        third order                    shell-resolved
        anisotropic                    true
        a3                             3.000000
        a5                             4.000000
        cn-shift                       1.200000
        cn-exp                         4.000000
        max-rad                        5.000000


          ...................................................
          :                      SETUP                      :
          :.................................................:
          :  # basis functions                  34          :
          :  # atomic orbitals                  34          :
          :  # shells                           22          :
          :  # electrons                        34          :
          :  max. iterations                   250          :
          :  Hamiltonian                  GFN2-xTB          :
          :  restarted?                      false          :
          :  GBSA solvation                  false          :
          :  PC potential                    false          :
          :  electronic temp.          300.0000000     K    :
          :  accuracy                    1.0000000          :
          :  -> integral cutoff          0.2500000E+02      :
          :  -> integral neglect         0.1000000E-07      :
          :  -> SCF convergence          0.1000000E-05 Eh   :
          :  -> wf. convergence          0.1000000E-03 e    :
          :  Broyden damping             0.4000000          :
          ...................................................

 iter      E             dE          RMSdq      gap      omega  full diag
   1    -17.8135693 -0.178136E+02  0.382E+00    0.07       0.0  T
   2    -17.7116087  0.101961E+00  0.384E+00    0.24       1.0  T
   3    -17.5989544  0.112654E+00  0.451E+00    0.98       1.0  T
   4    -17.7103505 -0.111396E+00  0.324E+00    0.27       1.0  T
   5    -17.8276334 -0.117283E+00  0.863E-01    0.07       1.0  T
   6    -17.8350083 -0.737496E-02  0.591E-01    0.05       1.0  T
   7    -17.8101417  0.248666E-01  0.151E+00    0.08       1.0  T
   8    -17.8239305 -0.137887E-01  0.112E+00    0.07       1.0  T
   9    -17.8352524 -0.113219E-01  0.640E-01    0.06       1.0  T
  10    -17.8402776 -0.502515E-02  0.268E-02    0.05       1.0  T
  11    -17.8400463  0.231221E-03  0.137E-01    0.05       1.0  T
  12    -17.8402216 -0.175288E-03  0.691E-02    0.05       1.0  T
  13    -17.8402633 -0.416994E-04  0.383E-02    0.05       1.0  T
  14    -17.8402784 -0.150292E-04  0.165E-02    0.05       1.5  T
  15    -17.8402817 -0.332978E-05  0.195E-03    0.05      12.8  T
  16    -17.8402817  0.163606E-07  0.225E-03    0.05      11.1  T
  17    -17.8402817 -0.610883E-07  0.282E-04    0.05      88.8  T
  18    -17.8402817 -0.929607E-09  0.287E-05    0.05     871.8  T

   *** convergence criteria satisfied after 18 iterations ***

         #    Occupation            Energy/Eh            Energy/eV
      -------------------------------------------------------------
         1        2.0000           -0.5923056             -16.1175
       ...           ...                  ...                  ...
        11        2.0000           -0.4575288             -12.4500
        12        2.0000           -0.4436315             -12.0718
        13        2.0000           -0.4433147             -12.0632
        14        2.0000           -0.4311061             -11.7310
        15        2.0000           -0.3756801             -10.2228
        16        2.0000           -0.3703231             -10.0770
        17        1.4525           -0.2960937              -8.0571 (HOMO)
        18        0.5475           -0.2942397              -8.0067 (LUMO)
        19                         -0.2216804              -6.0322
        20                         -0.2210073              -6.0139
        21                          0.0397442               1.0815
        22                          0.0939564               2.5567
       ...                                ...                  ...
        34                          0.3825893              10.4108
      -------------------------------------------------------------
                  HL-Gap            0.0018540 Eh            0.0505 eV
             Fermi-level           -0.2951667 Eh           -8.0319 eV

 SCC (total)                   0 d,  0 h,  0 min,  0.012 sec
 SCC setup                      ...        0 min,  0.000 sec (  1.122%)
 Dispersion                     ...        0 min,  0.000 sec (  0.665%)
 classical contributions        ...        0 min,  0.000 sec (  0.222%)
 integral evaluation            ...        0 min,  0.001 sec (  8.674%)
 iterations                     ...        0 min,  0.007 sec ( 58.139%)
 molecular gradient             ...        0 min,  0.004 sec ( 29.572%)
 printout                       ...        0 min,  0.000 sec (  1.472%)

         :::::::::::::::::::::::::::::::::::::::::::::::::::::
         ::                     SUMMARY                     ::
         :::::::::::::::::::::::::::::::::::::::::::::::::::::
         :: total energy             -17.614190104665 Eh    ::
         :: gradient norm              0.196669383086 Eh/a0 ::
         :: HOMO-LUMO gap              0.050450864510 eV    ::
         ::.................................................::
         :: SCC energy               -17.840281739933 Eh    ::
         :: -> isotropic ES            0.004383424349 Eh    ::
         :: -> anisotropic ES          0.007575003088 Eh    ::
         :: -> anisotropic XC          0.021002582549 Eh    ::
         :: -> dispersion             -0.010650907087 Eh    ::
         :: repulsion energy           0.226057372425 Eh    ::
         :: add. restraining           0.000000027508 Eh    ::
         :: total charge              -0.000000000000 e     ::
         :::::::::::::::::::::::::::::::::::::::::::::::::::::

      ----------------------------------------------------------- 
     |                   =====================                   |
     |                        A N C O P T                        |
     |                   =====================                   |
     |               Approximate Normal Coordinate               |
     |                Rational Function Optimizer                |
      ----------------------------------------------------------- 

          ...................................................
          :                      SETUP                      :
          :.................................................:
          :   optimization level            normal          :
          :   max. optcycles                   200          :
          :   ANC micro-cycles                  20          :
          :   degrees of freedom                42          :
          :.................................................:
          :   RF solver                   davidson          :
          :   write xtbopt.log                true          :
          :   linear?                        false          :
          :   energy convergence         0.5000000E-05 Eh   :
          :   grad. convergence          0.1000000E-02 Eh/α :
          :   maxmium RF displ.          1.0000000          :
          :   Hlow (freq-cutoff)         0.1000000E-01      :
          :   Hmax (freq-cutoff)         5.0000000          :
          :   S6 in model hess.         20.0000000          :
          ...................................................

generating ANC from model Hessian ...
Using Lindh-Hessian (1995)
 Shifting diagonal of input Hessian by    8.9517769842204324E-003
 Lowest  eigenvalues of input Hessian
    0.000000    0.000000    0.000000    0.000000    0.000000    0.000000
    0.010000    0.010335    0.011500    0.012486    0.012781    0.014751
    0.016332    0.021583    0.021908    0.022062    0.023141    0.023727
 Highest eigenvalues
    1.210559    1.228572    1.235720    1.307020    8.137007    8.151400


........................................................................
.............................. CYCLE    1 ..............................
........................................................................

 iter      E             dE          RMSdq      gap      omega  full diag
   1    -17.8402817 -0.178403E+02  0.276E-05    0.05       0.0  T
   2    -17.8402817  0.433522E-08  0.581E-04    0.05      43.0  T
   3    -17.8402817 -0.434100E-08  0.168E-05    0.05    1484.9  T
     SCC iter.                  ...        0 min,  0.002 sec
     gradient                   ...        0 min,  0.005 sec
 * total energy  :   -17.6141901 Eh     change       -0.6792789E-11 Eh
   gradient norm :     0.1966694 Eh/α   predicted     0.0000000E+00 (-100.00%)
   displ. norm   :     0.5539049 α      lambda       -0.6904515E-01
   maximum displ.:     0.2796228 α      in ANC's #10, #27, #11, ...

........................................................................
.............................. CYCLE    2 ..............................
........................................................................

 iter      E             dE          RMSdq      gap      omega  full diag
   1    -17.9451151 -0.179451E+02  0.909E-01    0.66       0.0  T
   2    -17.9431608  0.195431E-02  0.766E-01    0.64       1.0  T
   3    -17.9422324  0.928346E-03  0.524E-01    0.65       1.0  T
   4    -17.9464099 -0.417745E-02  0.867E-02    0.64       1.0  T
   5    -17.9464953 -0.854693E-04  0.503E-02    0.64       1.0  T
   6    -17.9464970 -0.169185E-05  0.484E-02    0.64       1.0  T
   7    -17.9465288 -0.317712E-04  0.532E-03    0.64       4.7  T
   8    -17.9465288  0.308220E-07  0.289E-03    0.64       8.6  T
   9    -17.9465289 -0.134631E-06  0.567E-04    0.64      44.1  T
  10    -17.9465289 -0.126182E-08  0.190E-04    0.64     131.4  T
     SCC iter.                  ...        0 min,  0.003 sec
     gradient                   ...        0 min,  0.003 sec
 * total energy  :   -17.6827994 Eh     change       -0.6860929E-01 Eh
   gradient norm :     0.1704925 Eh/α   predicted    -0.4511445E-01 ( -34.24%)
   displ. norm   :     0.8876808 α      lambda       -0.1078228E+00
   maximum displ.:     0.5402345 α      in ANC's #10, #27, #11, ...

........................................................................
.............................. CYCLE    3 ..............................
........................................................................

 iter      E             dE          RMSdq      gap      omega  full diag
   1    -18.1004525 -0.181005E+02  0.103E+00    2.34       0.0  T
   2    -18.1010897 -0.637253E-03  0.663E-01    2.33       1.0  T
   3    -18.0996757  0.141398E-02  0.323E-01    2.33       1.0  T
   4    -18.1013009 -0.162518E-02  0.469E-02    2.33       1.0  T
   5    -18.1013208 -0.198895E-04  0.125E-02    2.33       2.0  T
   6    -18.1013211 -0.297254E-06  0.917E-03    2.33       2.7  T
   7    -18.1013218 -0.650310E-06  0.276E-03    2.33       9.1  T
   8    -18.1013218 -0.409038E-07  0.587E-04    2.33      42.6  T
   9    -18.1013218 -0.124984E-09  0.308E-04    2.33      81.1  T
     SCC iter.                  ...        0 min,  0.004 sec
     gradient                   ...        0 min,  0.003 sec
 * total energy  :   -17.7263904 Eh     change       -0.4359105E-01 Eh
   gradient norm :     0.2801056 Eh/α   predicted    -0.9639217E-01 ( 121.13%)
   displ. norm   :     0.5775711 α      lambda       -0.7433128E-01
   maximum displ.:     0.4316216 α      in ANC's #10, #7, #11, ...

........................................................................
.............................. CYCLE    4 ..............................
........................................................................

 iter      E             dE          RMSdq      gap      omega  full diag
   1    -18.0633718 -0.180634E+02  0.617E-01    2.39       0.0  T
   2    -18.0634282 -0.563776E-04  0.362E-01    2.40       1.0  T
   3    -18.0631091  0.319096E-03  0.143E-01    2.40       1.0  T
   4    -18.0634584 -0.349322E-03  0.194E-02    2.41       1.3  T
   5    -18.0634612 -0.279819E-05  0.616E-03    2.41       4.1  T
   6    -18.0634613 -0.603060E-07  0.292E-03    2.41       8.6  T
   7    -18.0634613 -0.239943E-08  0.491E-04    2.41      50.9  T
   8    -18.0634613 -0.263388E-08  0.186E-04    2.41     134.1  T
     SCC iter.                  ...        0 min,  0.003 sec
     gradient                   ...        0 min,  0.003 sec
 * total energy  :   -17.7577509 Eh     change       -0.3136048E-01 Eh
   gradient norm :     0.2914970 Eh/α   predicted    -0.4956368E-01 (  58.05%)
   displ. norm   :     0.4780132 α      lambda       -0.2543351E-01
   maximum displ.:     0.2474957 α      in ANC's #10, #7, #2, ...

........................................................................
.............................. CYCLE    5 ..............................
........................................................................

 iter      E             dE          RMSdq      gap      omega  full diag
   1    -18.0946287 -0.180946E+02  0.467E-01    2.94       0.0  T
   2    -18.0946555 -0.267291E-04  0.281E-01    2.94       1.0  T
   3    -18.0944871  0.168338E-03  0.106E-01    2.94       1.0  T
   4    -18.0946689 -0.181774E-03  0.172E-02    2.94       1.4  T
   5    -18.0946727 -0.382550E-05  0.412E-03    2.94       6.1  T
   6    -18.0946727  0.196767E-07  0.168E-03    2.94      14.8  T
   7    -18.0946727 -0.367050E-07  0.452E-04    2.94      55.3  T
   8    -18.0946727  0.221146E-09  0.283E-04    2.94      88.4  T
     SCC iter.                  ...        0 min,  0.004 sec
     gradient                   ...        0 min,  0.003 sec
 * total energy  :   -17.7739772 Eh     change       -0.1622629E-01 Eh
   gradient norm :     0.0662301 Eh/α   predicted    -0.1562251E-01 (  -3.72%)
   displ. norm   :     0.4886077 α      lambda       -0.1659682E-01
   maximum displ.:     0.2445609 α      in ANC's #10, #5, #28, ...

........................................................................
.............................. CYCLE    6 ..............................
........................................................................

 iter      E             dE          RMSdq      gap      omega  full diag
   1    -18.1377199 -0.181377E+02  0.473E-01    3.64       0.0  T
   2    -18.1377393 -0.194393E-04  0.283E-01    3.64       1.0  T
   3    -18.1375029  0.236436E-03  0.128E-01    3.64       1.0  T
   4    -18.1377690 -0.266132E-03  0.147E-02    3.64       1.7  T
   5    -18.1377695 -0.508370E-06  0.527E-03    3.64       4.7  T
   6    -18.1377696 -0.737998E-07  0.205E-03    3.64      12.2  T
   7    -18.1377696 -0.427906E-07  0.620E-04    3.64      40.3  T
   8    -18.1377696 -0.101639E-08  0.250E-04    3.64     100.0  T
     SCC iter.                  ...        0 min,  0.003 sec
     gradient                   ...        0 min,  0.004 sec
 * total energy  :   -17.7823878 Eh     change       -0.8410560E-02 Eh
   gradient norm :     0.0704159 Eh/α   predicted    -0.1027954E-01 (  22.22%)
   displ. norm   :     0.3910127 α      lambda       -0.8139307E-02
   maximum displ.:     0.2102181 α      in ANC's #5, #10, #14, ...

........................................................................
.............................. CYCLE    7 ..............................
........................................................................

 iter      E             dE          RMSdq      gap      omega  full diag
   1    -18.1487578 -0.181488E+02  0.365E-01    3.87       0.0  T
   2    -18.1487758 -0.180678E-04  0.217E-01    3.87       1.0  T
   3    -18.1485703  0.205529E-03  0.138E-01    3.87       1.0  T
   4    -18.1488199 -0.249550E-03  0.931E-03    3.87       2.7  T
   5    -18.1488201 -0.205991E-06  0.420E-03    3.87       6.0  T
   6    -18.1488201 -0.242688E-07  0.257E-03    3.87       9.7  T
   7    -18.1488201 -0.499035E-07  0.421E-04    3.87      59.4  T
   8    -18.1488201 -0.885858E-09  0.190E-04    3.87     131.6  T
     SCC iter.                  ...        0 min,  0.003 sec
     gradient                   ...        0 min,  0.003 sec
 * total energy  :   -17.7844717 Eh     change       -0.2083970E-02 Eh
   gradient norm :     0.0617417 Eh/α   predicted    -0.4691862E-02 ( 125.14%)
   displ. norm   :     0.3163817 α      lambda       -0.6667739E-02
   maximum displ.:     0.2156917 α      in ANC's #2, #7, #8, ...

........................................................................
.............................. CYCLE    8 ..............................
........................................................................

 iter      E             dE          RMSdq      gap      omega  full diag
   1    -18.1303135 -0.181303E+02  0.257E-01    3.74       0.0  T
   2    -18.1303603 -0.468183E-04  0.148E-01    3.74       1.0  T
   3    -18.1303388  0.214824E-04  0.521E-02    3.74       1.0  T
   4    -18.1303607 -0.219204E-04  0.194E-02    3.74       1.3  T
   5    -18.1303659 -0.516962E-05  0.489E-03    3.74       5.1  T
   6    -18.1303659  0.464651E-07  0.302E-03    3.74       8.3  T
   7    -18.1303660 -0.908622E-07  0.401E-04    3.74      62.3  T
   8    -18.1303660 -0.286843E-09  0.140E-04    3.74     178.9  T
     SCC iter.                  ...        0 min,  0.003 sec
     gradient                   ...        0 min,  0.003 sec
 * total energy  :   -17.7866632 Eh     change       -0.2191441E-02 Eh
   gradient norm :     0.0426754 Eh/α   predicted    -0.3667583E-02 (  67.36%)
   displ. norm   :     0.3356119 α      lambda       -0.4374643E-02
   maximum displ.:     0.1623373 α      in ANC's #2, #4, #7, ...

........................................................................
.............................. CYCLE    9 ..............................
........................................................................

 iter      E             dE          RMSdq      gap      omega  full diag
   1    -18.1258817 -0.181259E+02  0.367E-01    3.82       0.0  T
   2    -18.1258999 -0.182384E-04  0.209E-01    3.82       1.0  T
   3    -18.1257827  0.117164E-03  0.107E-01    3.82       1.0  T
   4    -18.1259184 -0.135662E-03  0.891E-03    3.82       2.8  T
   5    -18.1259184  0.359957E-07  0.749E-03    3.82       3.3  T
   6    -18.1259186 -0.272984E-06  0.314E-03    3.82       8.0  T
   7    -18.1259187 -0.464622E-07  0.687E-04    3.82      36.4  T
   8    -18.1259187 -0.121918E-08  0.174E-04    3.82     144.1  T
     SCC iter.                  ...        0 min,  0.003 sec
     gradient                   ...        0 min,  0.003 sec
 * total energy  :   -17.7868743 Eh     change       -0.2111130E-03 Eh
   gradient norm :     0.0584724 Eh/α   predicted    -0.2433695E-02 (1052.79%)
   displ. norm   :     0.3434318 α      lambda       -0.6786755E-02
   maximum displ.:     0.2125537 α      in ANC's #4, #7, #5, ...

........................................................................
.............................. CYCLE   10 ..............................
........................................................................

 iter      E             dE          RMSdq      gap      omega  full diag
   1    -18.1382106 -0.181382E+02  0.373E-01    4.04       0.0  T
   2    -18.1382496 -0.390476E-04  0.213E-01    4.04       1.0  T
   3    -18.1381309  0.118734E-03  0.115E-01    4.04       1.0  T
   4    -18.1382740 -0.143069E-03  0.952E-03    4.04       2.6  T
   5    -18.1382742 -0.239282E-06  0.631E-03    4.04       4.0  T
   6    -18.1382742 -0.584441E-08  0.353E-03    4.04       7.1  T
   7    -18.1382743 -0.131179E-06  0.628E-04    4.04      39.8  T
   8    -18.1382743 -0.173640E-08  0.272E-04    4.04      91.8  T
     SCC iter.                  ...        0 min,  0.004 sec
     gradient                   ...        0 min,  0.003 sec
 * total energy  :   -17.7882557 Eh     change       -0.1381379E-02 Eh
   gradient norm :     0.0641993 Eh/α   predicted    -0.3793610E-02 ( 174.62%)
   displ. norm   :     0.3448051 α      lambda       -0.6522810E-02
   maximum displ.:     0.1628923 α      in ANC's #10, #8, #5, ...

........................................................................
.............................. CYCLE   11 ..............................
........................................................................

 iter      E             dE          RMSdq      gap      omega  full diag
   1    -18.1472907 -0.181473E+02  0.327E-01    4.02       0.0  T
   2    -18.1473314 -0.406662E-04  0.191E-01    4.01       1.0  T
   3    -18.1472719  0.594557E-04  0.762E-02    4.01       1.0  T
   4    -18.1473408 -0.688662E-04  0.132E-02    4.01       1.9  T
   5    -18.1473427 -0.189606E-05  0.565E-03    4.01       4.4  T
   6    -18.1473428 -0.530632E-07  0.352E-03    4.01       7.1  T
   7    -18.1473429 -0.110876E-06  0.890E-04    4.01      28.1  T
   8    -18.1473429 -0.149117E-08  0.144E-04    4.01     173.2  T
     SCC iter.                  ...        0 min,  0.005 sec
     gradient                   ...        0 min,  0.004 sec
 * total energy  :   -17.7896943 Eh     change       -0.1438656E-02 Eh
   gradient norm :     0.0409049 Eh/α   predicted    -0.3649152E-02 ( 153.65%)
   displ. norm   :     0.3605966 α      lambda       -0.5470195E-02
   maximum displ.:     0.2793593 α      in ANC's #2, #10, #5, ...

........................................................................
.............................. CYCLE   12 ..............................
........................................................................

 iter      E             dE          RMSdq      gap      omega  full diag
   1    -18.1269222 -0.181269E+02  0.277E-01    4.04       0.0  T
   2    -18.1269609 -0.386507E-04  0.170E-01    4.04       1.0  T
   3    -18.1269309  0.299928E-04  0.482E-02    4.04       1.0  T
   4    -18.1269625 -0.316353E-04  0.178E-02    4.04       1.4  T
   5    -18.1269668 -0.427439E-05  0.443E-03    4.04       5.6  T
   6    -18.1269668  0.269986E-08  0.205E-03    4.04      12.2  T
   7    -18.1269668 -0.520845E-08  0.110E-03    4.04      22.7  T
   8    -18.1269668 -0.115832E-07  0.128E-04    4.04     196.0  T
   9    -18.1269668  0.367706E-11  0.767E-05    4.04     326.0  T
     SCC iter.                  ...        0 min,  0.005 sec
     gradient                   ...        0 min,  0.003 sec
 * total energy  :   -17.7912710 Eh     change       -0.1576667E-02 Eh
   gradient norm :     0.0561154 Eh/α   predicted    -0.3090742E-02 (  96.03%)
   displ. norm   :     0.3346293 α      lambda       -0.4074171E-02
   maximum displ.:     0.2020612 α      in ANC's #5, #8, #11, ...

........................................................................
.............................. CYCLE   13 ..............................
........................................................................

 iter      E             dE          RMSdq      gap      omega  full diag
   1    -18.1298192 -0.181298E+02  0.330E-01    3.97       0.0  T
   2    -18.1298271 -0.794299E-05  0.196E-01    3.97       1.0  T
   3    -18.1297663  0.608518E-04  0.652E-02    3.97       1.0  T
   4    -18.1298353 -0.689825E-04  0.675E-03    3.97       3.7  T
   5    -18.1298353 -0.664053E-07  0.370E-03    3.97       6.8  T
   6    -18.1298353 -0.919921E-08  0.145E-03    3.97      17.3  T
   7    -18.1298354 -0.261516E-07  0.411E-04    3.97      60.9  T
   8    -18.1298354 -0.401620E-09  0.895E-05    3.97     279.4  T
     SCC iter.                  ...        0 min,  0.003 sec
     gradient                   ...        0 min,  0.003 sec
 * total energy  :   -17.7920056 Eh     change       -0.7346211E-03 Eh
   gradient norm :     0.0578772 Eh/α   predicted    -0.2265191E-02 ( 208.35%)
   displ. norm   :     0.3338929 α      lambda       -0.4624217E-02
   maximum displ.:     0.1771311 α      in ANC's #5, #1, #7, ...

........................................................................
.............................. CYCLE   14 ..............................
........................................................................

 iter      E             dE          RMSdq      gap      omega  full diag
   1    -18.1374446 -0.181374E+02  0.344E-01    3.93       0.0  T
   2    -18.1374661 -0.214633E-04  0.209E-01    3.95       1.0  T
   3    -18.1373997  0.663613E-04  0.690E-02    3.95       1.0  T
   4    -18.1374760 -0.762749E-04  0.132E-02    3.95       1.9  T
   5    -18.1374769 -0.976009E-06  0.539E-03    3.95       4.6  T
   6    -18.1374770 -0.351788E-07  0.131E-03    3.95      19.1  T
   7    -18.1374770 -0.495654E-08  0.657E-04    3.95      38.0  T
   8    -18.1374770 -0.267606E-08  0.300E-04    3.95      83.4  T
     SCC iter.                  ...        0 min,  0.004 sec
     gradient                   ...        0 min,  0.003 sec
 * total energy  :   -17.7918176 Eh     change        0.1879809E-03 Eh
   gradient norm :     0.0562308 Eh/α   predicted    -0.2569871E-02 (*******%)
   displ. norm   :     0.3148769 α      lambda       -0.5969291E-02
   maximum displ.:     0.1747731 α      in ANC's #2, #8, #12, ...

........................................................................
.............................. CYCLE   15 ..............................
........................................................................

 iter      E             dE          RMSdq      gap      omega  full diag
   1    -18.1362609 -0.181363E+02  0.269E-01    4.05       0.0  T
   2    -18.1362747 -0.137927E-04  0.163E-01    4.05       1.0  T
   3    -18.1362148  0.598876E-04  0.717E-02    4.04       1.0  T
   4    -18.1362851 -0.703605E-04  0.106E-02    4.05       2.4  T
   5    -18.1362855 -0.340230E-06  0.487E-03    4.05       5.1  T
   6    -18.1362855 -0.283789E-07  0.167E-03    4.05      14.9  T
   7    -18.1362855 -0.365367E-07  0.820E-04    4.05      30.5  T
   8    -18.1362855 -0.362091E-08  0.212E-04    4.05     117.8  T
     SCC iter.                  ...        0 min,  0.003 sec
     gradient                   ...        0 min,  0.004 sec
 * total energy  :   -17.7928598 Eh     change       -0.1042116E-02 Eh
   gradient norm :     0.0781932 Eh/α   predicted    -0.3280556E-02 ( 214.80%)
   displ. norm   :     0.2850813 α      lambda       -0.6148055E-02
   maximum displ.:     0.1305748 α      in ANC's #15, #2, #7, ...

........................................................................
.............................. CYCLE   16 ..............................
........................................................................

 iter      E             dE          RMSdq      gap      omega  full diag
   1    -18.1367189 -0.181367E+02  0.282E-01    4.00       0.0  T
   2    -18.1367568 -0.379332E-04  0.171E-01    3.97       1.0  T
   3    -18.1367535  0.324289E-05  0.349E-02    3.97       1.0  T
   4    -18.1367605 -0.692853E-05  0.172E-02    3.96       1.5  T
   5    -18.1367630 -0.256529E-05  0.652E-03    3.96       3.8  T
   6    -18.1367632 -0.123659E-06  0.123E-03    3.96      20.2  T
   7    -18.1367632 -0.417238E-09  0.609E-04    3.96      41.0  T
   8    -18.1367632 -0.298878E-08  0.261E-04    3.96      95.9  T
     SCC iter.                  ...        0 min,  0.004 sec
     gradient                   ...        0 min,  0.003 sec
 * total energy  :   -17.7911711 Eh     change        0.1688666E-02 Eh
   gradient norm :     0.0950559 Eh/α   predicted    -0.3323865E-02 (-296.83%)
   displ. norm   :     0.2633845 α      lambda       -0.8628363E-02
   maximum displ.:     0.1640563 α      in ANC's #8, #5, #15, ...

........................................................................
.............................. CYCLE   17 ..............................
........................................................................

 iter      E             dE          RMSdq      gap      omega  full diag
   1    -18.1340362 -0.181340E+02  0.254E-01    3.94       0.0  T
   2    -18.1340506 -0.143982E-04  0.150E-01    3.93       1.0  T
   3    -18.1340273  0.232319E-04  0.461E-02    3.94       1.0  T
   4    -18.1340552 -0.278676E-04  0.102E-02    3.93       2.5  T
   5    -18.1340558 -0.625778E-06  0.355E-03    3.93       7.0  T
   6    -18.1340558 -0.887188E-08  0.999E-04    3.93      25.0  T
   7    -18.1340558 -0.902467E-09  0.438E-04    3.93      57.1  T
     SCC iter.                  ...        0 min,  0.003 sec
     gradient                   ...        0 min,  0.003 sec
 * total energy  :   -17.7946671 Eh     change       -0.3495990E-02 Eh
   gradient norm :     0.0530542 Eh/α   predicted    -0.4613472E-02 (  31.96%)
   displ. norm   :     0.2536860 α      lambda       -0.2422518E-02
   maximum displ.:     0.1557295 α      in ANC's #2, #1, #7, ...

........................................................................
.............................. CYCLE   18 ..............................
........................................................................

 iter      E             dE          RMSdq      gap      omega  full diag
   1    -18.1377294 -0.181377E+02  0.224E-01    3.95       0.0  T
   2    -18.1377484 -0.190872E-04  0.138E-01    3.97       1.0  T
   3    -18.1376903  0.581832E-04  0.736E-02    3.97       1.0  T
   4    -18.1377611 -0.708298E-04  0.737E-03    3.97       3.4  T
   5    -18.1377617 -0.595615E-06  0.217E-03    3.97      11.5  T
   6    -18.1377617  0.238028E-08  0.831E-04    3.97      30.1  T
   7    -18.1377617 -0.621532E-08  0.302E-04    3.97      82.7  T
     SCC iter.                  ...        0 min,  0.003 sec
     gradient                   ...        0 min,  0.003 sec
 * total energy  :   -17.7947041 Eh     change       -0.3704833E-04 Eh
   gradient norm :     0.0927462 Eh/α   predicted    -0.1289214E-02 (3379.82%)
   displ. norm   :     0.1873008 α      lambda       -0.2141195E-02
   maximum displ.:     0.1200554 α      in ANC's #1, #2, #9, ...

........................................................................
.............................. CYCLE   19 ..............................
........................................................................

 iter      E             dE          RMSdq      gap      omega  full diag
   1    -18.1394600 -0.181395E+02  0.135E-01    3.97       0.0  T
   2    -18.1394653 -0.532056E-05  0.850E-02    3.97       1.0  T
   3    -18.1394413  0.240099E-04  0.528E-02    3.97       1.0  T
   4    -18.1394752 -0.339514E-04  0.312E-03    3.97       8.0  T
   5    -18.1394753 -0.484399E-07  0.152E-03    3.97      16.5  T
   6    -18.1394753  0.161920E-08  0.766E-04    3.97      32.7  T
   7    -18.1394753 -0.552424E-08  0.201E-04    3.97     124.3  T
     SCC iter.                  ...        0 min,  0.003 sec
     gradient                   ...        0 min,  0.004 sec
 * total energy  :   -17.7956310 Eh     change       -0.9268548E-03 Eh
   gradient norm :     0.0616191 Eh/α   predicted    -0.1108157E-02 (  19.56%)
   displ. norm   :     0.1795754 α      lambda       -0.1308368E-02
   maximum displ.:     0.1242134 α      in ANC's #5, #7, #2, ...

........................................................................
.............................. CYCLE   20 ..............................
........................................................................

 iter      E             dE          RMSdq      gap      omega  full diag
   1    -18.1378417 -0.181378E+02  0.175E-01    3.92       0.0  T
   2    -18.1378575 -0.158490E-04  0.104E-01    3.89       1.0  T
   3    -18.1378541  0.339377E-05  0.221E-02    3.89       1.1  T
   4    -18.1378573 -0.320379E-05  0.889E-03    3.89       2.8  T
   5    -18.1378586 -0.124615E-05  0.153E-03    3.89      16.3  T
   6    -18.1378586 -0.147328E-08  0.246E-04    3.89     101.6  T
   7    -18.1378586 -0.326192E-09  0.137E-04    3.89     182.4  T
     SCC iter.                  ...        0 min,  0.005 sec
     gradient                   ...        0 min,  0.003 sec
 * total energy  :   -17.7958227 Eh     change       -0.1917362E-03 Eh
   gradient norm :     0.0318260 Eh/α   predicted    -0.6752809E-03 ( 252.19%)
   displ. norm   :     0.1714127 α      lambda       -0.9070081E-03
   maximum displ.:     0.1506732 α      in ANC's #2, #7, #10, ...
 * RMSD in coord.:     1.0169106 α      energy gain  -0.1816326E+00 Eh

generating ANC from model Hessian ...
Using Lindh-Hessian (1995)
 Shifting diagonal of input Hessian by    7.5802467903572741E-003
 Lowest  eigenvalues of input Hessian
    0.000000    0.000000    0.000000    0.000000    0.000000    0.000000
    0.010000    0.010528    0.010775    0.012474    0.015366    0.021301
    0.021476    0.023589    0.026080    0.029842    0.034450    0.039532
 Highest eigenvalues
    1.641233    1.719849    1.773033    1.954493    8.166564    8.274148


........................................................................
.............................. CYCLE   21 ..............................
........................................................................

 iter      E             dE          RMSdq      gap      omega  full diag
   1    -18.1370650 -0.181371E+02  0.105E-01    3.89       0.0  T
   2    -18.1370662 -0.124272E-05  0.619E-02    3.90       1.0  T
   3    -18.1370643  0.188603E-05  0.131E-02    3.89       1.9  T
   4    -18.1370665 -0.217693E-05  0.261E-03    3.90       9.6  T
   5    -18.1370666 -0.811402E-07  0.104E-03    3.90      24.0  T
   6    -18.1370666 -0.143259E-08  0.260E-04    3.90      96.3  T
   7    -18.1370666 -0.871836E-10  0.135E-04    3.90     185.6  T
     SCC iter.                  ...        0 min,  0.005 sec
     gradient                   ...        0 min,  0.004 sec
 * total energy  :   -17.7963754 Eh     change       -0.5526758E-03 Eh
   gradient norm :     0.0186120 Eh/α   predicted     0.0000000E+00 (-100.00%)
   displ. norm   :     0.2120666 α      lambda       -0.8099250E-03
   maximum displ.:     0.1973342 α      in ANC's #1, #5, #8, ...

........................................................................
.............................. CYCLE   22 ..............................
........................................................................

 iter      E             dE          RMSdq      gap      omega  full diag
   1    -18.1417722 -0.181418E+02  0.853E-02    3.93       0.0  T
   2    -18.1417738 -0.159950E-05  0.510E-02    3.94       1.0  T
   3    -18.1417670  0.675080E-05  0.248E-02    3.93       1.0  T
   4    -18.1417750 -0.799253E-05  0.266E-03    3.94       9.4  T
   5    -18.1417751 -0.768731E-07  0.100E-03    3.94      25.0  T
   6    -18.1417751 -0.262062E-09  0.107E-04    3.94     233.8  T
   7    -18.1417751  0.387246E-12  0.649E-05    3.94     385.3  T
     SCC iter.                  ...        0 min,  0.003 sec
     gradient                   ...        0 min,  0.003 sec
 * total energy  :   -17.7969041 Eh     change       -0.5287422E-03 Eh
   gradient norm :     0.0058559 Eh/α   predicted    -0.4231811E-03 ( -19.96%)
   displ. norm   :     0.1844435 α      lambda       -0.3814361E-03
   maximum displ.:     0.1776619 α      in ANC's #1, #8, #10, ...

........................................................................
.............................. CYCLE   23 ..............................
........................................................................

 iter      E             dE          RMSdq      gap      omega  full diag
   1    -18.1438750 -0.181439E+02  0.522E-02    3.95       0.0  T
   2    -18.1438755 -0.478837E-06  0.321E-02    3.95       1.0  T
   3    -18.1438715  0.392922E-05  0.197E-02    3.95       1.3  T
   4    -18.1438766 -0.510769E-05  0.918E-04    3.95      27.2  T
   5    -18.1438766  0.315978E-10  0.350E-04    3.95      71.4  T
   6    -18.1438766 -0.371916E-09  0.583E-05    3.95     428.7  T
     SCC iter.                  ...        0 min,  0.003 sec
     gradient                   ...        0 min,  0.003 sec
 * total energy  :   -17.7971977 Eh     change       -0.2935987E-03 Eh
   gradient norm :     0.0038425 Eh/α   predicted    -0.1972090E-03 ( -32.83%)
   displ. norm   :     0.1570264 α      lambda       -0.2283478E-03
   maximum displ.:     0.1516646 α      in ANC's #1, #5, #10, ...

........................................................................
.............................. CYCLE   24 ..............................
........................................................................

 iter      E             dE          RMSdq      gap      omega  full diag
   1    -18.1437428 -0.181437E+02  0.568E-02    3.94       0.0  T
   2    -18.1437437 -0.881204E-06  0.337E-02    3.94       1.0  T
   3    -18.1437404  0.332615E-05  0.162E-02    3.94       1.5  T
   4    -18.1437443 -0.388220E-05  0.126E-03    3.94      19.9  T
   5    -18.1437443 -0.127498E-07  0.454E-04    3.94      55.1  T
   6    -18.1437443 -0.695621E-10  0.114E-04    3.94     218.9  T
     SCC iter.                  ...        0 min,  0.003 sec
     gradient                   ...        0 min,  0.003 sec
 * total energy  :   -17.7973957 Eh     change       -0.1979399E-03 Eh
   gradient norm :     0.0050956 Eh/α   predicted    -0.1169956E-03 ( -40.89%)
   displ. norm   :     0.1426600 α      lambda       -0.1717080E-03
   maximum displ.:     0.1364116 α      in ANC's #1, #5, #13, ...

........................................................................
.............................. CYCLE   25 ..............................
........................................................................

 iter      E             dE          RMSdq      gap      omega  full diag
   1    -18.1430963 -0.181431E+02  0.555E-02    3.93       0.0  T
   2    -18.1430967 -0.354769E-06  0.327E-02    3.93       1.0  T
   3    -18.1430960  0.698562E-06  0.704E-03    3.93       3.5  T
   4    -18.1430968 -0.793017E-06  0.117E-03    3.93      21.4  T
   5    -18.1430968 -0.145892E-07  0.395E-04    3.93      63.3  T
   6    -18.1430968 -0.426077E-10  0.121E-04    3.93     206.9  T
     SCC iter.                  ...        0 min,  0.003 sec
     gradient                   ...        0 min,  0.003 sec
 * total energy  :   -17.7975455 Eh     change       -0.1498496E-03 Eh
   gradient norm :     0.0025949 Eh/α   predicted    -0.8760311E-04 ( -41.54%)
   displ. norm   :     0.1367714 α      lambda       -0.1307799E-03
   maximum displ.:     0.1306782 α      in ANC's #1, #5, #10, ...

........................................................................
.............................. CYCLE   26 ..............................
........................................................................

 iter      E             dE          RMSdq      gap      omega  full diag
   1    -18.1428850 -0.181429E+02  0.541E-02    3.92       0.0  T
   2    -18.1428852 -0.226858E-06  0.318E-02    3.92       1.0  T
   3    -18.1428846  0.618061E-06  0.658E-03    3.92       3.8  T
   4    -18.1428853 -0.709313E-06  0.890E-04    3.92      28.1  T
   5    -18.1428853 -0.563259E-08  0.372E-04    3.92      67.1  T
     SCC iter.                  ...        0 min,  0.003 sec
     gradient                   ...        0 min,  0.003 sec
 * total energy  :   -17.7976568 Eh     change       -0.1113051E-03 Eh
   gradient norm :     0.0036592 Eh/α   predicted    -0.6661667E-04 ( -40.15%)
   displ. norm   :     0.1320134 α      lambda       -0.9755971E-04
   maximum displ.:     0.1272297 α      in ANC's #1, #5, #28, ...

........................................................................
.............................. CYCLE   27 ..............................
........................................................................

 iter      E             dE          RMSdq      gap      omega  full diag
   1    -18.1428565 -0.181429E+02  0.442E-02    3.91       0.0  T
   2    -18.1428567 -0.187349E-06  0.260E-02    3.91       1.0  T
   3    -18.1428560  0.656375E-06  0.675E-03    3.91       3.7  T
   4    -18.1428568 -0.744257E-06  0.772E-04    3.91      32.4  T
   5    -18.1428568 -0.429503E-08  0.323E-04    3.91      77.4  T
     SCC iter.                  ...        0 min,  0.003 sec
     gradient                   ...        0 min,  0.006 sec
 * total energy  :   -17.7977370 Eh     change       -0.8014214E-04 Eh
   gradient norm :     0.0015753 Eh/α   predicted    -0.4962897E-04 ( -38.07%)
   displ. norm   :     0.1673324 α      lambda       -0.6048669E-04
   maximum displ.:     0.1642191 α      in ANC's #1, #28, #5, ...

........................................................................
.............................. CYCLE   28 ..............................
........................................................................

 iter      E             dE          RMSdq      gap      omega  full diag
   1    -18.1431204 -0.181431E+02  0.430E-02    3.91       0.0  T
   2    -18.1431206 -0.161104E-06  0.254E-02    3.91       1.0  T
   3    -18.1431187  0.183481E-05  0.119E-02    3.90       2.1  T
   4    -18.1431209 -0.211963E-05  0.616E-04    3.91      40.6  T
   5    -18.1431209 -0.224642E-09  0.315E-04    3.91      79.4  T
   6    -18.1431209 -0.418687E-10  0.116E-04    3.91     215.2  T
     SCC iter.                  ...        0 min,  0.007 sec
     gradient                   ...        0 min,  0.004 sec
 * total energy  :   -17.7977994 Eh     change       -0.6247520E-04 Eh
   gradient norm :     0.0069759 Eh/α   predicted    -0.3061763E-04 ( -50.99%)
   displ. norm   :     0.1201902 α      lambda       -0.4363554E-04
   maximum displ.:     0.1162284 α      in ANC's #1, #10, #28, ...

........................................................................
.............................. CYCLE   29 ..............................
........................................................................

 iter      E             dE          RMSdq      gap      omega  full diag
   1    -18.1431239 -0.181431E+02  0.330E-02    3.90       0.0  T
   2    -18.1431240 -0.805266E-07  0.195E-02    3.90       1.3  T
   3    -18.1431235  0.558820E-06  0.629E-03    3.90       4.0  T
   4    -18.1431241 -0.633394E-06  0.461E-04    3.90      54.2  T
   5    -18.1431241 -0.471239E-09  0.248E-04    3.90     100.8  T
     SCC iter.                  ...        0 min,  0.003 sec
     gradient                   ...        0 min,  0.004 sec
 * total energy  :   -17.7978234 Eh     change       -0.2400075E-04 Eh
   gradient norm :     0.0030307 Eh/α   predicted    -0.2213192E-04 (  -7.79%)
   displ. norm   :     0.0527772 α      lambda       -0.1011906E-04
   maximum displ.:     0.0508255 α      in ANC's #1, #28, #8, ...

........................................................................
.............................. CYCLE   30 ..............................
........................................................................

 iter      E             dE          RMSdq      gap      omega  full diag
   1    -18.1433832 -0.181434E+02  0.945E-03    3.90       0.0  T
   2    -18.1433832 -0.193441E-07  0.563E-03    3.91       4.4  T
   3    -18.1433831  0.113098E-06  0.354E-03    3.91       7.1  T
   4    -18.1433833 -0.148018E-06  0.189E-04    3.91     132.0  T
   5    -18.1433833 -0.136279E-09  0.111E-04    3.91     224.8  T
     SCC iter.                  ...        0 min,  0.002 sec
     gradient                   ...        0 min,  0.003 sec
 * total energy  :   -17.7978290 Eh     change       -0.5531980E-05 Eh
   gradient norm :     0.0019053 Eh/α   predicted    -0.5074893E-05 (  -8.26%)
   displ. norm   :     0.0311906 α      lambda       -0.3284030E-05
   maximum displ.:     0.0268221 α      in ANC's #1, #3, #5, ...

........................................................................
.............................. CYCLE   31 ..............................
........................................................................

 iter      E             dE          RMSdq      gap      omega  full diag
   1    -18.1438877 -0.181439E+02  0.119E-02    3.91       0.0  T
   2    -18.1438878 -0.541212E-07  0.705E-03    3.91       3.5  T
   3    -18.1438876  0.185866E-06  0.487E-03    3.91       5.1  T
   4    -18.1438879 -0.269274E-06  0.340E-04    3.91      73.5  T
   5    -18.1438879 -0.849600E-09  0.156E-04    3.91     159.9  T
     SCC iter.                  ...        0 min,  0.002 sec
     gradient                   ...        0 min,  0.004 sec
 * total energy  :   -17.7978277 Eh     change        0.1293922E-05 Eh
   gradient norm :     0.0051357 Eh/α   predicted    -0.1641685E-05 (-226.88%)
   displ. norm   :     0.0113743 α      lambda       -0.3874322E-05
   maximum displ.:     0.0092596 α      in ANC's #1, #3, #4, ...

........................................................................
.............................. CYCLE   32 ..............................
........................................................................

 iter      E             dE          RMSdq      gap      omega  full diag
   1    -18.1438676 -0.181439E+02  0.580E-03    3.91       0.0  T
   2    -18.1438676 -0.970106E-08  0.352E-03    3.91       7.1  T
   3    -18.1438675  0.502672E-07  0.238E-03    3.91      10.5  T
   4    -18.1438676 -0.712736E-07  0.140E-04    3.91     178.0  T
   5    -18.1438676 -0.180545E-09  0.581E-05    3.91     430.0  T
     SCC iter.                  ...        0 min,  0.003 sec
     gradient                   ...        0 min,  0.003 sec
 * total energy  :   -17.7978300 Eh     change       -0.2356782E-05 Eh
   gradient norm :     0.0010248 Eh/α   predicted    -0.1937966E-05 ( -17.77%)
   displ. norm   :     0.0123265 α      lambda       -0.8245905E-06
   maximum displ.:     0.0103926 α      in ANC's #1, #3, #28, ...

........................................................................
.............................. CYCLE   33 ..............................
........................................................................

 iter      E             dE          RMSdq      gap      omega  full diag
   1    -18.1435163 -0.181435E+02  0.607E-03    3.91       0.0  T
   2    -18.1435163 -0.823301E-08  0.354E-03    3.91       7.1  T
   3    -18.1435162  0.501392E-07  0.218E-03    3.91      11.4  T
   4    -18.1435163 -0.619997E-07  0.167E-04    3.91     149.6  T
   5    -18.1435163 -0.114394E-09  0.892E-05    3.91     280.2  T
     SCC iter.                  ...        0 min,  0.003 sec
     gradient                   ...        0 min,  0.003 sec
 * total energy  :   -17.7978301 Eh     change       -0.1068003E-06 Eh
   gradient norm :     0.0005411 Eh/α   predicted    -0.4133621E-06 ( 287.04%)
   displ. norm   :     0.0041261 α      lambda       -0.3527745E-06
   maximum displ.:     0.0021362 α      in ANC's #3, #1, #2, ...

   *** GEOMETRY OPTIMIZATION CONVERGED AFTER 33 ITERATIONS ***

------------------------------------------------------------------------
 total energy gain   :        -0.1836400 Eh     -115.2359 kcal/mol
 total RMSD          :         1.2328347 a0        0.6524 Å
 total power (kW/mol):       -14.6105110 (step)-1561.4862 (real)
------------------------------------------------------------------------

 ANCopt (total)                0 d,  0 h,  0 min,  0.309 sec
 optimizer setup                ...        0 min,  0.000 sec (  0.031%)
 model hessian                  ...        0 min,  0.016 sec (  5.058%)
 ANC generation                 ...        0 min,  0.001 sec (  0.374%)
 coordinate transformation      ...        0 min,  0.000 sec (  0.083%)
 single point calculation       ...        0 min,  0.279 sec ( 90.478%)
 optimization log               ...        0 min,  0.004 sec (  1.434%)
 hessian update                 ...        0 min,  0.000 sec (  0.147%)
 rational function              ...        0 min,  0.005 sec (  1.514%)

================
 final structure:
================
16
 xtb: 6.6.1 (8d0f1dd)
C           -0.72011820182402       -0.57643717376261        1.02495060152252
C            0.56613197212356       -1.10655139575702        0.68743011705244
C            1.63691231314971       -0.57657637335061        1.29922028109681
C            1.37869538690466        1.45946156540366        0.25724721363993
C            0.10665588247627        1.79083057442959       -0.04171974433565
C           -1.40274688502675        0.05921635261511        0.05958249338119
H           -0.91908272758903       -0.36162262069483        2.06622273155106
H            0.67254892763534       -1.59955934634849       -0.26943184419920
H            2.64258781348791       -0.81754684798890        0.99595289515833
H            1.53685650213709       -0.12567444873657        2.27270752018546
H            2.05108755671552        1.12455361759327       -0.51367457540151
H            1.82565348773049        1.77712359207791        1.18137930016243
H           -0.23773344962713        1.78189540810740       -1.05969785350355
H           -0.49767302244070        2.33038219006162        0.66717995202924
H           -2.30600409392725        0.60851044145262        0.26897885787458
H           -1.23472146192715       -0.18828553510096       -0.97549794621428

 Bond Distances (Angstroems)
 ---------------------------
C1-C2=1.4316         C1-C6=1.3424         C1-H7=1.0817         C2-C1=1.4316         C2-C3=1.3423         C2-H8=1.0816         
C3-C2=1.3423         C3-H9=1.0777         C3-H10=1.0775        C4-C5=1.3481         C4-H11=1.0764        C4-H12=1.0746        
C5-C4=1.3481         C5-H13=1.0747        C5-H14=1.0765        C6-C1=1.3424         C6-H15=1.0777        C6-H16=1.0774        
H7-C1=1.0817         H8-C2=1.0816         H9-C3=1.0777         H10-C3=1.0775        H11-C4=1.0764        H12-C4=1.0746        
H13-C5=1.0747        H14-C5=1.0765        H15-C6=1.0777        H16-C6=1.0774        
 C  H  Rav=1.0776 sigma=0.0023  Rmin=1.0746  Rmax=1.0817    10
 C  C  Rav=1.3661 sigma=0.0379  Rmin=1.3423  Rmax=1.4316     4

 selected bond angles (degree)
 --------------------
C6-C1-C2=117.56                H7-C1-C2=117.76                H7-C1-C6=120.31                C3-C2-C1=117.59                
H8-C2-C1=117.76                H8-C2-C3=120.31                H9-C3-C2=121.86                H10-C3-C2=120.19               
H10-C3-H9=115.75               H11-C4-C5=120.47               H12-C4-C5=120.70               H12-C4-H11=116.62              
H13-C5-C4=120.69               H14-C5-C4=120.46               H14-C5-H13=116.62              H15-C6-C1=121.86               
H16-C6-C1=120.19               H16-C6-H15=115.75              

 selected dihedral angles (degree)
 ---------------------------------
C3-C2-C1-C6=115.01            C3-C2-C1-H7=318.36            H8-C2-C1-C6=318.31            H8-C2-C1-H7=161.66            
H9-C3-C2-C1=189.17            H9-C3-C2-H8=345.25            H10-C3-C2-C1= 26.71           H10-C3-C2-H8=182.79           
H13-C5-C4-H11=356.34          H13-C5-C4-H12=158.89          H14-C5-C4-H11=193.89          H14-C5-C4-H12=356.44          
H15-C6-C1-C2=189.15           H15-C6-C1-H7=345.18           H16-C6-C1-C2= 26.75           H16-C6-C1-H7=182.78           

 CMA Distance (Angstroems)
 ---------------------------
R(CMA):  2.3888
           -------------------------------------------------
          |                Final Singlepoint                |
           -------------------------------------------------

          ...................................................
          :                      SETUP                      :
          :.................................................:
          :  # basis functions                  34          :
          :  # atomic orbitals                  34          :
          :  # shells                           22          :
          :  # electrons                        34          :
          :  max. iterations                   250          :
          :  Hamiltonian                  GFN2-xTB          :
          :  restarted?                      false          :
          :  GBSA solvation                  false          :
          :  PC potential                    false          :
          :  electronic temp.          300.0000000     K    :
          :  accuracy                    1.0000000          :
          :  -> integral cutoff          0.2500000E+02      :
          :  -> integral neglect         0.1000000E-07      :
          :  -> SCF convergence          0.1000000E-05 Eh   :
          :  -> wf. convergence          0.1000000E-03 e    :
          :  Broyden damping             0.4000000          :
          ...................................................

 iter      E             dE          RMSdq      gap      omega  full diag
   1    -18.1435163 -0.181435E+02  0.400E-05    3.91       0.0  T
   2    -18.1435163 -0.461498E-11  0.300E-05    3.91     834.1  T
   3    -18.1435163 -0.124878E-10  0.994E-06    3.91    2515.2  T

   *** convergence criteria satisfied after 3 iterations ***

         #    Occupation            Energy/Eh            Energy/eV
      -------------------------------------------------------------
         1        2.0000           -0.6250232             -17.0077
       ...           ...                  ...                  ...
        11        2.0000           -0.4631914             -12.6041
        12        2.0000           -0.4492565             -12.2249
        13        2.0000           -0.4385269             -11.9329
        14        2.0000           -0.4305932             -11.7170
        15        2.0000           -0.4193770             -11.4118
        16        2.0000           -0.3884229             -10.5695
        17        2.0000           -0.3685720             -10.0294 (HOMO)
        18                         -0.2248833              -6.1194 (LUMO)
        19                         -0.2082800              -5.6676
        20                         -0.1493870              -4.0650
        21                          0.1134930               3.0883
        22                          0.1479899               4.0270
       ...                                ...                  ...
        34                          0.6004780              16.3398
      -------------------------------------------------------------
                  HL-Gap            0.1436887 Eh            3.9100 eV
             Fermi-level           -0.2967276 Eh           -8.0744 eV

 SCC (total)                   0 d,  0 h,  0 min,  0.006 sec
 SCC setup                      ...        0 min,  0.000 sec (  2.793%)
 Dispersion                     ...        0 min,  0.000 sec (  1.531%)
 classical contributions        ...        0 min,  0.000 sec (  0.736%)
 integral evaluation            ...        0 min,  0.001 sec ( 18.874%)
 iterations                     ...        0 min,  0.002 sec ( 24.980%)
 molecular gradient             ...        0 min,  0.003 sec ( 46.222%)
 printout                       ...        0 min,  0.000 sec (  4.578%)

         :::::::::::::::::::::::::::::::::::::::::::::::::::::
         ::                     SUMMARY                     ::
         :::::::::::::::::::::::::::::::::::::::::::::::::::::
         :: total energy             -17.797830145865 Eh    ::
         :: gradient norm              0.000541459119 Eh/a0 ::
         :: HOMO-LUMO gap              3.909968454623 eV    ::
         ::.................................................::
         :: SCC energy               -18.143516273416 Eh    ::
         :: -> isotropic ES            0.003336885263 Eh    ::
         :: -> anisotropic ES          0.005843013899 Eh    ::
         :: -> anisotropic XC          0.018004456823 Eh    ::
         :: -> dispersion             -0.011167380432 Eh    ::
         :: repulsion energy           0.345618827878 Eh    ::
         :: add. restraining           0.000040342120 Eh    ::
         :: total charge              -0.000000000000 e     ::
         :::::::::::::::::::::::::::::::::::::::::::::::::::::

           -------------------------------------------------
          |                Property Printout                |
           -------------------------------------------------

    * Orbital Energies and Occupations

         #    Occupation            Energy/Eh            Energy/eV
      -------------------------------------------------------------
         1        2.0000           -0.6250232             -17.0077
       ...           ...                  ...                  ...
         5        2.0000           -0.5473187             -14.8933
         6        2.0000           -0.5385915             -14.6558
         7        2.0000           -0.5012075             -13.6386
         8        2.0000           -0.4978536             -13.5473
         9        2.0000           -0.4961628             -13.5013
        10        2.0000           -0.4732372             -12.8774
        11        2.0000           -0.4631914             -12.6041
        12        2.0000           -0.4492565             -12.2249
        13        2.0000           -0.4385269             -11.9329
        14        2.0000           -0.4305932             -11.7170
        15        2.0000           -0.4193770             -11.4118
        16        2.0000           -0.3884229             -10.5695
        17        2.0000           -0.3685720             -10.0294 (HOMO)
        18                         -0.2248833              -6.1194 (LUMO)
        19                         -0.2082800              -5.6676
        20                         -0.1493870              -4.0650
        21                          0.1134930               3.0883
        22                          0.1479899               4.0270
        23                          0.1613287               4.3900
        24                          0.1666410               4.5345
        25                          0.1807352               4.9181
        26                          0.2063432               5.6149
        27                          0.2229259               6.0661
        28                          0.2236907               6.0869
       ...                                ...                  ...
        34                          0.6004780              16.3398
      -------------------------------------------------------------
                  HL-Gap            0.1436887 Eh            3.9100 eV
             Fermi-level           -0.2967276 Eh           -8.0744 eV

     #   Z          covCN         q      C6AA      α(0)
     1   6 C        2.909    -0.032    28.785     8.798
     2   6 C        2.909    -0.031    28.783     8.797
     3   6 C        2.910    -0.071    29.768     8.947
     4   6 C        2.887    -0.086    30.152     9.002
     5   6 C        2.888    -0.086    30.149     9.002
     6   6 C        2.911    -0.071    29.767     8.946
     7   1 H        0.925     0.036     2.501     2.473
     8   1 H        0.925     0.036     2.501     2.473
     9   1 H        0.926     0.039     2.463     2.454
    10   1 H        0.926     0.043     2.407     2.426
    11   1 H        0.926     0.031     2.572     2.508
    12   1 H        0.926     0.039     2.462     2.454
    13   1 H        0.926     0.039     2.461     2.453
    14   1 H        0.926     0.031     2.572     2.508
    15   1 H        0.926     0.039     2.463     2.454
    16   1 H        0.926     0.043     2.406     2.426

 Mol. C6AA /au·bohr⁶  :       2338.615804
 Mol. C8AA /au·bohr⁸  :      52969.397270
 Mol. α(0) /au        :         78.120680


Wiberg/Mayer (AO) data.
largest (>0.10) Wiberg bond orders for each atom

 ---------------------------------------------------------------------------
     #   Z sym  total        # sym  WBO       # sym  WBO       # sym  WBO
 ---------------------------------------------------------------------------
     1   6 C    3.985 --     6 C    1.743     2 C    1.173     7 H    0.962
     2   6 C    3.985 --     3 C    1.744     1 C    1.173     8 H    0.962
     3   6 C    3.991 --     2 C    1.744     9 H    0.978    10 H    0.974
                             4 C    0.162     6 C    0.102
     4   6 C    3.993 --     5 C    1.803    11 H    0.979    12 H    0.969
                             3 C    0.162
     5   6 C    3.993 --     4 C    1.803    14 H    0.979    13 H    0.969
                             6 C    0.162
     6   6 C    3.991 --     1 C    1.743    15 H    0.978    16 H    0.974
                             5 C    0.162     3 C    0.102
     7   1 H    0.999 --     1 C    0.962
     8   1 H    0.999 --     2 C    0.962
     9   1 H    0.998 --     3 C    0.978
    10   1 H    0.998 --     3 C    0.974
    11   1 H    0.999 --     4 C    0.979
    12   1 H    0.998 --     4 C    0.969
    13   1 H    0.998 --     5 C    0.969
    14   1 H    0.999 --     5 C    0.979
    15   1 H    0.998 --     6 C    0.978
    16   1 H    0.998 --     6 C    0.974
 ---------------------------------------------------------------------------

Topologies differ in total number of bonds
Writing topology from bond orders to xtbtopo.mol

molecular dipole:
                 x           y           z       tot (Debye)
 q only:       -0.023      -0.068       0.020
   full:        0.001       0.004      -0.002       0.012
molecular quadrupole (traceless):
                xx          xy          yy          xz          yz          zz
 q only:        0.740      -0.688      -1.296       0.498       0.358       0.555
  q+dip:        1.741      -2.353      -4.492       0.740       2.420       2.752
   full:        1.042      -1.410      -2.744       0.505       1.467       1.703

           -------------------------------------------------
          |                Geometry Summary                 |
           -------------------------------------------------

      molecular mass/u    :       82.1438229
   center of mass at/Å    :        0.2722634       0.2091008       0.5374322
  moments of inertia/u·Å² :        0.1266240E+03   0.1273740E+03   0.2241089E+03
rotational constants/cm⁻¹ :        0.1331315E+00   0.1323475E+00   0.7522073E-01

 * 14 selected distances

     #   Z          #   Z                                           value/Å
     1   6 C        2   6 C                                       1.4315659 (max)
     2   6 C        3   6 C                                       1.3422860
     4   6 C        5   6 C                                       1.3480621
     1   6 C        6   6 C                                       1.3423760
     1   6 C        7   1 H                                       1.0816562
     2   6 C        8   1 H                                       1.0816499
     3   6 C        9   1 H                                       1.0776926
     3   6 C       10   1 H                                       1.0774977
     4   6 C       11   1 H                                       1.0763806
     4   6 C       12   1 H                                       1.0745702 (min)
     5   6 C       13   1 H                                       1.0746923
     5   6 C       14   1 H                                       1.0765075
     6   6 C       15   1 H                                       1.0777034
     6   6 C       16   1 H                                       1.0774421

 * 2 distinct bonds (by element types)

   Z      Z             #   av. dist./Å        max./Å        min./Å
   1 H    6 C          10     1.0775792     1.0816562     1.0745702
   6 C    6 C           4     1.3660725     1.4315659     1.3422860


optimized geometry written to: xtbopt.xyz


           -------------------------------------------------
          | TOTAL ENERGY              -17.797830145865 Eh   |
          | GRADIENT NORM               0.000541459119 Eh/α |
          | HOMO-LUMO GAP               3.909968454623 eV   |
           -------------------------------------------------

------------------------------------------------------------------------
 * finished run on 2025/05/23 at 13:00:53.016     
------------------------------------------------------------------------
 total:
 * wall-time:     0 d,  0 h,  0 min,  0.337 sec
 *  cpu-time:     0 d,  0 h,  0 min,  0.333 sec
 * ratio c/w:     0.989 speedup
 SCF:
 * wall-time:     0 d,  0 h,  0 min,  0.013 sec
 *  cpu-time:     0 d,  0 h,  0 min,  0.013 sec
 * ratio c/w:     1.000 speedup
 ANC optimizer:
 * wall-time:     0 d,  0 h,  0 min,  0.316 sec
 *  cpu-time:     0 d,  0 h,  0 min,  0.312 sec
 * ratio c/w:     0.988 speedup

