
                                 *****************
                                 * O   R   C   A *
                                 *****************

                                            #,                                       
                                            ###                                      
                                            ####                                     
                                            #####                                    
                                            ######                                   
                                           ########,                                 
                                     ,,################,,,,,                         
                               ,,#################################,,                 
                          ,,##########################################,,             
                       ,#########################################, ''#####,          
                    ,#############################################,,   '####,        
                  ,##################################################,,,,####,       
                ,###########''''           ''''###############################       
              ,#####''   ,,,,##########,,,,          '''####'''          '####       
            ,##' ,,,,###########################,,,                        '##       
           ' ,,###''''                  '''############,,,                           
         ,,##''                                '''############,,,,        ,,,,,,###''
      ,#''                                            '''#######################'''  
     '                                                          ''''####''''         
             ,#######,   #######,   ,#######,      ##                                
            ,#'     '#,  ##    ##  ,#'     '#,    #''#        ######   ,####,        
            ##       ##  ##   ,#'  ##            #'  '#       #        #'  '#        
            ##       ##  #######   ##           ,######,      #####,   #    #        
            '#,     ,#'  ##    ##  '#,     ,#' ,#      #,         ##   #,  ,#        
             '#######'   ##     ##  '#######'  #'      '#     #####' # '####'        



                  #######################################################
                  #                        -***-                        #
                  #          Department of theory and spectroscopy      #
                  #    Directorship and core code : Frank Neese         #
                  #        Max Planck Institute fuer Kohlenforschung    #
                  #                Kaiser Wilhelm Platz 1               #
                  #                 D-45470 Muelheim/Ruhr               #
                  #                      Germany                        #
                  #                                                     #
                  #                  All rights reserved                #
                  #                        -***-                        #
                  #######################################################


                         Program Version 5.0.4 -  RELEASE  -


 With contributions from (in alphabetic order):
   Daniel Aravena         : Magnetic Suceptibility
   Michael Atanasov       : Ab Initio Ligand Field Theory (pilot matlab implementation)
   Alexander A. Auer      : GIAO ZORA, VPT2 properties, NMR spectrum
   Ute Becker             : Parallelization
   Giovanni Bistoni       : ED, misc. LED, open-shell LED, HFLD
   Martin Brehm           : Molecular dynamics
   Dmytro Bykov           : SCF Hessian
   Vijay G. Chilkuri      : MRCI spin determinant printing, contributions to CSF-ICE
   Dipayan Datta          : RHF DLPNO-CCSD density
   Achintya Kumar Dutta   : EOM-CC, STEOM-CC
   Dmitry Ganyushin       : Spin-Orbit,Spin-Spin,Magnetic field MRCI
   Miquel Garcia          : C-PCM and meta-GGA Hessian, CC/C-PCM, Gaussian charge scheme
   Yang Guo               : DLPNO-NEVPT2, F12-NEVPT2, CIM, IAO-localization
   Andreas Hansen         : Spin unrestricted coupled pair/coupled cluster methods
   Benjamin Helmich-Paris : MC-RPA, TRAH-SCF, COSX integrals
   Lee Huntington         : MR-EOM, pCC
   Robert Izsak           : Overlap fitted RIJCOSX, COSX-SCS-MP3, EOM
   Marcus Kettner         : VPT2
   Christian Kollmar      : KDIIS, OOCD, Brueckner-CCSD(T), CCSD density, CASPT2, CASPT2-K
   Simone Kossmann        : Meta GGA functionals, TD-DFT gradient, OOMP2, MP2 Hessian
   Martin Krupicka        : Initial AUTO-CI
   Lucas Lang             : DCDCAS
   Marvin Lechner         : AUTO-CI (C++ implementation), FIC-MRCC
   Dagmar Lenk            : GEPOL surface, SMD
   Dimitrios Liakos       : Extrapolation schemes; Compound Job, initial MDCI parallelization
   Dimitrios Manganas     : Further ROCIS development; embedding schemes
   Dimitrios Pantazis     : SARC Basis sets
   Anastasios Papadopoulos: AUTO-CI, single reference methods and gradients
   Taras Petrenko         : DFT Hessian,TD-DFT gradient, ASA, ECA, R-Raman, ABS, FL, XAS/XES, NRVS
   Peter Pinski           : DLPNO-MP2, DLPNO-MP2 Gradient
   Christoph Reimann      : Effective Core Potentials
   Marius Retegan         : Local ZFS, SOC
   Christoph Riplinger    : Optimizer, TS searches, QM/MM, DLPNO-CCSD(T), (RO)-DLPNO pert. Triples
   Tobias Risthaus        : Range-separated hybrids, TD-DFT gradient, RPA, STAB
   Michael Roemelt        : Original ROCIS implementation
   Masaaki Saitow         : Open-shell DLPNO-CCSD energy and density
   Barbara Sandhoefer     : DKH picture change effects
   Avijit Sen             : IP-ROCIS
   Kantharuban Sivalingam : CASSCF convergence, NEVPT2, FIC-MRCI
   Bernardo de Souza      : ESD, SOC TD-DFT
   Georgi Stoychev        : AutoAux, RI-MP2 NMR, DLPNO-MP2 response
   Willem Van den Heuvel  : Paramagnetic NMR
   Boris Wezisla          : Elementary symmetry handling
   Frank Wennmohs         : Technical directorship


 We gratefully acknowledge several colleagues who have allowed us to
 interface, adapt or use parts of their codes:
   Stefan Grimme, W. Hujo, H. Kruse, P. Pracht,  : VdW corrections, initial TS optimization,
                  C. Bannwarth, S. Ehlert          DFT functionals, gCP, sTDA/sTD-DF
   Ed Valeev, F. Pavosevic, A. Kumar             : LibInt (2-el integral package), F12 methods
   Garnet Chan, S. Sharma, J. Yang, R. Olivares  : DMRG
   Ulf Ekstrom                                   : XCFun DFT Library
   Mihaly Kallay                                 : mrcc  (arbitrary order and MRCC methods)
   Jiri Pittner, Ondrej Demel                    : Mk-CCSD
   Frank Weinhold                                : gennbo (NPA and NBO analysis)
   Christopher J. Cramer and Donald G. Truhlar   : smd solvation model
   Lars Goerigk                                  : TD-DFT with DH, B97 family of functionals
   V. Asgeirsson, H. Jonsson                     : NEB implementation
   FAccTs GmbH                                   : IRC, NEB, NEB-TS, DLPNO-Multilevel, CI-OPT
                                                   MM, QMMM, 2- and 3-layer-ONIOM, Crystal-QMMM,
                                                   LR-CPCM, SF, NACMEs, symmetry and pop. for TD-DFT,
                                                   nearIR, NL-DFT gradient (VV10), updates on ESD,
                                                   ML-optimized integration grids
   S Lehtola, MJT Oliveira, MAL Marques          : LibXC Library
   Liviu Ungur et al                             : ANISO software


 Your calculation uses the libint2 library for the computation of 2-el integrals
 For citations please refer to: http://libint.valeyev.net

 Your ORCA version has been built with support for libXC version: 5.1.0
 For citations please refer to: https://tddft.org/programs/libxc/

 This ORCA versions uses:
   CBLAS   interface :  Fast vector & matrix operations
   LAPACKE interface :  Fast linear algebra routines
   SCALAPACK package :  Parallel linear algebra routines
   Shared memory     :  Shared parallel matrices
   BLAS/LAPACK       :  OpenBLAS 0.3.15  USE64BITINT DYNAMIC_ARCH NO_AFFINITY Haswell SINGLE_THREADED
        Core in use  :  Haswell
   Copyright (c) 2011-2014, The OpenBLAS Project


Your calculation utilizes the atom-pairwise dispersion correction
with the Becke-Johnson damping scheme (D3BJ)
Cite in your paper:
S.Grimme, S.Ehrlich, L.Goerigk, J Comput Chem, (2011), 32, 1456–1465 
S.Grimme, J.Antony, S.Ehrlich and H.Krieg, J.Chem.Phys., 132, (2010), 154104 
   

================================================================================

----- Orbital basis set information -----
Your calculation utilizes the basis: def2-SVP
   F. Weigend and R. Ahlrichs, Phys. Chem. Chem. Phys. 7, 3297 (2005).

----- AuxJ basis set information -----
Your calculation utilizes the auxiliary basis: def2/J
   F. Weigend, Phys. Chem. Chem. Phys. 8, 1057 (2006).

================================================================================
                                        WARNINGS
                       Please study these warnings very carefully!
================================================================================


INFO   : the flag for use of the SHARK integral package has been found!

================================================================================
                                       INPUT FILE
================================================================================
NAME = 5ZPuRE_ll_ad_2-3_4-5_hess_orca.inp
|  1> ! Freq PBE0 RIJCOSX D3BJ def2-SVP def2/J 
|  2> %output 
|  3> xyzfile=True 
|  4> end 
|  5> %scf 
|  6> maxiter 250 
|  7> end
|  8> %output
|  9> Print[P_Hirshfeld] = 1
| 10> end
| 11> % maxcore
| 12> 4000
| 13> *xyz 0 1
| 14> C   -0.90753937  -1.36551530  -0.20013780 
| 15> C    0.40018334  -1.57935780  -0.27054968 
| 16> C    1.51051799  -0.63024290  -0.13962703 
| 17> C    0.82611119   1.36423301  -0.20262756 
| 18> C   -0.34725670   1.42470774   0.65999901 
| 19> C   -1.63814496  -0.11142796   0.00854072 
| 20> H   -1.56321004  -2.22542572  -0.31997668 
| 21> H    0.73268682  -2.60204048  -0.43597677 
| 22> H    2.20625781  -0.63521032  -0.96730685 
| 23> H    2.00418506  -0.64778674   0.82357599 
| 24> H    0.65187621   1.52951543  -1.25529875 
| 25> H    1.72397916   1.84016526   0.17031030 
| 26> H   -1.01863760   2.25889399   0.50153804 
| 27> H   -0.18585637   1.18709515   1.70058876 
| 28> H   -2.35285007  -0.13887504   0.81970496 
| 29> H   -2.04224248   0.33118168  -0.89251665 
| 30> *
| 31> 
| 32>                          ****END OF INPUT****
================================================================================

                       ****************************
                       * Single Point Calculation *
                       ****************************

---------------------------------
CARTESIAN COORDINATES (ANGSTROEM)
---------------------------------
  C     -0.907539   -1.365515   -0.200138
  C      0.400183   -1.579358   -0.270550
  C      1.510518   -0.630243   -0.139627
  C      0.826111    1.364233   -0.202628
  C     -0.347257    1.424708    0.659999
  C     -1.638145   -0.111428    0.008541
  H     -1.563210   -2.225426   -0.319977
  H      0.732687   -2.602040   -0.435977
  H      2.206258   -0.635210   -0.967307
  H      2.004185   -0.647787    0.823576
  H      0.651876    1.529515   -1.255299
  H      1.723979    1.840165    0.170310
  H     -1.018638    2.258894    0.501538
  H     -0.185856    1.187095    1.700589
  H     -2.352850   -0.138875    0.819705
  H     -2.042242    0.331182   -0.892517

----------------------------
CARTESIAN COORDINATES (A.U.)
----------------------------
  NO LB      ZA    FRAG     MASS         X           Y           Z
   0 C     6.0000    0    12.011   -1.715001   -2.580450   -0.378206
   1 C     6.0000    0    12.011    0.756237   -2.984554   -0.511265
   2 C     6.0000    0    12.011    2.854465   -1.190986   -0.263857
   3 C     6.0000    0    12.011    1.561124    2.578027   -0.382911
   4 C     6.0000    0    12.011   -0.656220    2.692307    1.247217
   5 C     6.0000    0    12.011   -3.095645   -0.210568    0.016140
   6 H     1.0000    0     1.008   -2.954039   -4.205445   -0.604668
   7 H     1.0000    0     1.008    1.384577   -4.917144   -0.823877
   8 H     1.0000    0     1.008    4.169223   -1.200374   -1.827945
   9 H     1.0000    0     1.008    3.787361   -1.224140    1.556333
  10 H     1.0000    0     1.008    1.231868    2.890365   -2.372171
  11 H     1.0000    0     1.008    3.257848    3.477408    0.321840
  12 H     1.0000    0     1.008   -1.924946    4.268691    0.947770
  13 H     1.0000    0     1.008   -0.351218    2.243285    3.213647
  14 H     1.0000    0     1.008   -4.446242   -0.262436    1.549018
  15 H     1.0000    0     1.008   -3.859279    0.625843   -1.686612

--------------------------------
INTERNAL COORDINATES (ANGSTROEM)
--------------------------------
 C      0   0   0     0.000000000000     0.00000000     0.00000000
 C      1   0   0     1.326960863741     0.00000000     0.00000000
 C      2   1   0     1.466561580254   129.57549737     0.00000000
 C      3   2   1     2.109577182811   111.31952746   347.91557473
 C      4   3   2     1.457591848743   106.42249330    44.93380549
 C      1   2   3     1.466310440936   129.52517198     1.10015613
 H      1   2   3     1.087984979254   117.43198002   180.46666106
 H      2   1   3     1.088027826064   117.43310952   179.07608730
 H      3   2   1     1.081264286301   114.57274076   234.14934862
 H      3   2   1     1.082485574990   114.47029386   101.58913483
 H      4   3   2     1.079718824914   103.07322419   282.23992776
 H      4   3   2     1.082479120151    97.83334712   165.56142345
 H      5   4   3     1.082464268042   116.39959092   199.78047205
 H      5   4   3     1.079507682815   116.16703142    61.55395071
 H      6   1   2     1.081454650328   114.47697151   232.91511512
 H      6   1   2     1.082174885646   114.66830633   100.19854341

---------------------------
INTERNAL COORDINATES (A.U.)
---------------------------
 C      0   0   0     0.000000000000     0.00000000     0.00000000
 C      1   0   0     2.507592622903     0.00000000     0.00000000
 C      2   1   0     2.771399745210   129.57549737     0.00000000
 C      3   2   1     3.986523133882   111.31952746   347.91557473
 C      4   3   2     2.754449409160   106.42249330    44.93380549
 C      1   2   3     2.770925160678   129.52517198     1.10015613
 H      1   2   3     2.055993648610   117.43198002   180.46666106
 H      2   1   3     2.056074617347   117.43310952   179.07608730
 H      3   2   1     2.043293379499   114.57274076   234.14934862
 H      3   2   1     2.045601280651   114.47029386   101.58913483
 H      4   3   2     2.040372880726   103.07322419   282.23992776
 H      4   3   2     2.045589082774    97.83334712   165.56142345
 H      5   4   3     2.045561016354   116.39959092   199.78047205
 H      5   4   3     2.039973879983   116.16703142    61.55395071
 H      6   1   2     2.043653115375   114.47697151   232.91511512
 H      6   1   2     2.045014162878   114.66830633   100.19854341

---------------------
BASIS SET INFORMATION
---------------------
There are 2 groups of distinct atoms

 Group   1 Type C   : 7s4p1d contracted to 3s2p1d pattern {511/31/1}
 Group   2 Type H   : 4s1p contracted to 2s1p pattern {31/1}

Atom   0C    basis set group =>   1
Atom   1C    basis set group =>   1
Atom   2C    basis set group =>   1
Atom   3C    basis set group =>   1
Atom   4C    basis set group =>   1
Atom   5C    basis set group =>   1
Atom   6H    basis set group =>   2
Atom   7H    basis set group =>   2
Atom   8H    basis set group =>   2
Atom   9H    basis set group =>   2
Atom  10H    basis set group =>   2
Atom  11H    basis set group =>   2
Atom  12H    basis set group =>   2
Atom  13H    basis set group =>   2
Atom  14H    basis set group =>   2
Atom  15H    basis set group =>   2
---------------------------------
AUXILIARY/J BASIS SET INFORMATION
---------------------------------
There are 2 groups of distinct atoms

 Group   1 Type C   : 12s5p4d2f1g contracted to 6s4p3d1f1g pattern {711111/2111/211/2/1}
 Group   2 Type H   : 5s2p1d contracted to 3s1p1d pattern {311/2/1}

Atom   0C    basis set group =>   1
Atom   1C    basis set group =>   1
Atom   2C    basis set group =>   1
Atom   3C    basis set group =>   1
Atom   4C    basis set group =>   1
Atom   5C    basis set group =>   1
Atom   6H    basis set group =>   2
Atom   7H    basis set group =>   2
Atom   8H    basis set group =>   2
Atom   9H    basis set group =>   2
Atom  10H    basis set group =>   2
Atom  11H    basis set group =>   2
Atom  12H    basis set group =>   2
Atom  13H    basis set group =>   2
Atom  14H    basis set group =>   2
Atom  15H    basis set group =>   2
------------------------------------------------------------------------------
                           ORCA GTO INTEGRAL CALCULATION
                           -- RI-GTO INTEGRALS CHOSEN --
------------------------------------------------------------------------------
------------------------------------------------------------------------------
                   ___                                                        
                  /   \      - P O W E R E D   B Y -                         
                 /     \                                                     
                 |  |  |   _    _      __       _____    __    __             
                 |  |  |  | |  | |    /  \     |  _  \  |  |  /  |          
                  \  \/   | |  | |   /    \    | | | |  |  | /  /          
                 / \  \   | |__| |  /  /\  \   | |_| |  |  |/  /          
                |  |  |   |  __  | /  /__\  \  |    /   |      \           
                |  |  |   | |  | | |   __   |  |    \   |  |\   \          
                \     /   | |  | | |  |  |  |  | |\  \  |  | \   \       
                 \___/    |_|  |_| |__|  |__|  |_| \__\ |__|  \__/        
                                                                              
                      - O R C A' S   B I G   F R I E N D -                    
                                      &                                       
                       - I N T E G R A L  F E E D E R -                       
                                                                              
 v1 FN, 2020, v2 2021                                                         
------------------------------------------------------------------------------


Reading SHARK input file 5ZPuRE_ll_ad_2-3_4-5_hess_orca.SHARKINP.tmp ... ok
----------------------
SHARK INTEGRAL PACKAGE
----------------------

Number of atoms                             ...     16
Number of basis functions                   ...    134
Number of shells                            ...     66
Maximum angular momentum                    ...      2
Integral batch strategy                     ... SHARK/LIBINT Hybrid
RI-J (if used) integral strategy            ... SPLIT-RIJ (Revised 2003 algorithm where possible)
Printlevel                                  ...      1
Contraction scheme used                     ... SEGMENTED contraction
Coulomb Range Separation                    ... NOT USED
Exchange Range Separation                   ... NOT USED
Finite Nucleus Model                        ... NOT USED
Auxiliary Coulomb fitting basis             ... AVAILABLE
   # of basis functions in Aux-J            ...    404
   # of shells in Aux-J                     ...    140
   Maximum angular momentum in Aux-J        ...      4
Auxiliary J/K fitting basis                 ... NOT available
Auxiliary Correlation fitting basis         ... NOT available
Auxiliary 'external' fitting basis          ... NOT available
Integral threshold                          ...     1.000000e-10
Primitive cut-off                           ...     1.000000e-11
Primitive pair pre-selection threshold      ...     1.000000e-11

Calculating pre-screening integrals         ... done (  0.0 sec) Dimension = 66
Organizing shell pair data                  ... done (  0.0 sec)
Shell pair information
Total number of shell pairs                 ...      2211
Shell pairs after pre-screening             ...      2165
Total number of primitive shell pairs       ...      7611
Primitive shell pairs kept                  ...      5713
          la=0 lb=0:    726 shell pairs
          la=1 lb=0:    812 shell pairs
          la=1 lb=1:    246 shell pairs
          la=2 lb=0:    228 shell pairs
          la=2 lb=1:    132 shell pairs
          la=2 lb=2:     21 shell pairs

Calculating one electron integrals          ... done (  0.0 sec)
Calculating RI/J V-Matrix + Cholesky decomp.... done (  0.0 sec)
Calculating Nuclear repulsion               ... done (  0.0 sec) ENN=    221.532566042124 Eh

SHARK setup successfully completed in   0.1 seconds

Maximum memory used throughout the entire GTOINT-calculation: 16.1 MB
-------------------------------------------------------------------------------
                                 ORCA SCF
-------------------------------------------------------------------------------

------------
SCF SETTINGS
------------
Hamiltonian:
 Density Functional     Method          .... DFT(GTOs)
 Exchange Functional    Exchange        .... PBE
   PBE kappa parameter   XKappa         ....  0.804000
   PBE mue parameter    XMuePBE         ....  0.219520
 Correlation Functional Correlation     .... PBE
   PBE beta parameter  CBetaPBE         ....  0.066725
 LDA part of GGA corr.  LDAOpt          .... PW91-LDA
 Gradients option       PostSCFGGA      .... off
 Hybrid DFT is turned on
   Fraction HF Exchange ScalHFX         ....  0.250000
   Scaling of DF-GGA-X  ScalDFX         ....  0.750000
   Scaling of DF-GGA-C  ScalDFC         ....  1.000000
   Scaling of DF-LDA-C  ScalLDAC        ....  1.000000
   Perturbative correction              ....  0.000000
   Density functional embedding theory  .... OFF
   NL short-range parameter             ....  6.900000
 RI-approximation to the Coulomb term is turned on
   Number of AuxJ basis functions       .... 404
   RIJ-COSX (HFX calculated with COS-X)).... on


General Settings:
 Integral files         IntName         .... 5ZPuRE_ll_ad_2-3_4-5_hess_orca
 Hartree-Fock type      HFTyp           .... RHF
 Total Charge           Charge          ....    0
 Multiplicity           Mult            ....    1
 Number of Electrons    NEL             ....   46
 Basis Dimension        Dim             ....  134
 Nuclear Repulsion      ENuc            ....    221.5325660421 Eh

Convergence Acceleration:
 DIIS                   CNVDIIS         .... on
   Start iteration      DIISMaxIt       ....    12
   Startup error        DIISStart       ....  0.200000
   # of expansion vecs  DIISMaxEq       ....     5
   Bias factor          DIISBfac        ....   1.050
   Max. coefficient     DIISMaxC        ....  10.000
 Trust-Rad. Augm. Hess. CNVTRAH         .... auto
   Auto Start mean grad. ratio tolernc. ....  1.125000
   Auto Start start iteration           ....    20
   Auto Start num. interpolation iter.  ....    10
   Max. Number of Micro iterations      ....    16
   Max. Number of Macro iterations      .... Maxiter - #DIIS iter
   Number of Davidson start vectors     ....     2
   Converg. threshold I  (grad. norm)   ....   5.000e-05
   Converg. threshold II (energy diff.) ....   1.000e-06
   Grad. Scal. Fac. for Micro threshold ....   0.100
   Minimum threshold for Micro iter.    ....   0.010
   NR start threshold (gradient norm)   ....   0.001
   Initial trust radius                 ....   0.400
   Minimum AH scaling param. (alpha)    ....   1.000
   Maximum AH scaling param. (alpha)    .... 1000.000
   Orbital update algorithm             .... Taylor
   White noise on init. David. guess    .... on
   Maximum white noise                  ....   0.010
   Quad. conv. algorithm                .... NR
 SOSCF                  CNVSOSCF        .... on
   Start iteration      SOSCFMaxIt      ....   150
   Startup grad/error   SOSCFStart      ....  0.003300
 Level Shifting         CNVShift        .... on
   Level shift para.    LevelShift      ....    0.2500
   Turn off err/grad.   ShiftErr        ....    0.0010
 Zerner damping         CNVZerner       .... off
 Static damping         CNVDamp         .... on
   Fraction old density DampFac         ....    0.7000
   Max. Damping (<1)    DampMax         ....    0.9800
   Min. Damping (>=0)   DampMin         ....    0.0000
   Turn off err/grad.   DampErr         ....    0.1000
 Fernandez-Rico         CNVRico         .... off

SCF Procedure:
 Maximum # iterations   MaxIter         ....   250
 SCF integral mode      SCFMode         .... Direct
   Integral package                     .... SHARK and LIBINT hybrid scheme
 Reset frequency        DirectResetFreq ....    20
 Integral Threshold     Thresh          ....  1.000e-10 Eh
 Primitive CutOff       TCut            ....  1.000e-11 Eh

Convergence Tolerance:
 Convergence Check Mode ConvCheckMode   .... Total+1el-Energy
 Convergence forced     ConvForced      .... 0
 Energy Change          TolE            ....  1.000e-06 Eh
 1-El. energy change                    ....  1.000e-03 Eh
 Orbital Gradient       TolG            ....  5.000e-05
 Orbital Rotation angle TolX            ....  5.000e-05
 DIIS Error             TolErr          ....  1.000e-06


Diagonalization of the overlap matrix:
Smallest eigenvalue                        ... 1.400e-03
Time for diagonalization                   ...    0.002 sec
Threshold for overlap eigenvalues          ... 1.000e-08
Number of eigenvalues below threshold      ... 0
Time for construction of square roots      ...    0.001 sec
Total time needed                          ...    0.003 sec

Time for model grid setup =    0.149 sec

------------------------------
INITIAL GUESS: MODEL POTENTIAL
------------------------------
Loading Hartree-Fock densities                     ... done
Calculating cut-offs                               ... done
Initializing the effective Hamiltonian             ... done
Setting up the integral package (SHARK)            ... done
Starting the Coulomb interaction                   ... done (   0.1 sec)
Reading the grid                                   ... done
Mapping shells                                     ... done
Starting the XC term evaluation                    ... done (   0.1 sec)
  promolecular density results
     # of electrons  =     45.993897444
     EX              =    -33.506456880
     EC              =     -1.462774351
     EX+EC           =    -34.969231231
Transforming the Hamiltonian                       ... done (   0.0 sec)
Diagonalizing the Hamiltonian                      ... done (   0.0 sec)
Back transforming the eigenvectors                 ... done (   0.0 sec)
Now organizing SCF variables                       ... done
                      ------------------
                      INITIAL GUESS DONE (   0.4 sec)
                      ------------------
-------------------
DFT GRID GENERATION
-------------------

General Integration Accuracy     IntAcc      ... 4.388
Radial Grid Type                 RadialGrid  ... OptM3 with GC (2021)
Angular Grid (max. ang.)         AngularGrid ... 4 (Lebedev-302)
Angular grid pruning method      GridPruning ... 4 (adaptive)
Weight generation scheme         WeightScheme... Becke
Basis function cutoff            BFCut       ... 1.0000e-10
Integration weight cutoff        WCut        ... 1.0000e-14
Angular grids for H and He will be reduced by one unit
Partially contracted basis set               ... off
Rotationally invariant grid construction     ... off

Total number of grid points                  ...    68360
Total number of batches                      ...     1078
Average number of points per batch           ...       63
Average number of grid points per atom       ...     4272
Time for grid setup =    0.570 sec

--------------------
COSX GRID GENERATION
--------------------

GRIDX 1
-------
General Integration Accuracy     IntAcc      ... 3.816
Radial Grid Type                 RadialGrid  ... OptM3 with GC (2021)
Angular Grid (max. ang.)         AngularGrid ... 1 (Lebedev-50)
Angular grid pruning method      GridPruning ... 4 (adaptive)
Weight generation scheme         WeightScheme... Becke
Basis function cutoff            BFCut       ... 1.0000e-10
Integration weight cutoff        WCut        ... 1.0000e-14
Angular grids for H and He will be reduced by one unit
Partially contracted basis set               ... on
Rotationally invariant grid construction     ... off

Total number of grid points                  ...     8780
Total number of batches                      ...      146
Average number of points per batch           ...       60
Average number of grid points per atom       ...      549
UseSFitting                                  ... on

GRIDX 2
-------
General Integration Accuracy     IntAcc      ... 4.020
Radial Grid Type                 RadialGrid  ... OptM3 with GC (2021)
Angular Grid (max. ang.)         AngularGrid ... 2 (Lebedev-110)
Angular grid pruning method      GridPruning ... 4 (adaptive)
Weight generation scheme         WeightScheme... Becke
Basis function cutoff            BFCut       ... 1.0000e-10
Integration weight cutoff        WCut        ... 1.0000e-14
Angular grids for H and He will be reduced by one unit
Partially contracted basis set               ... on
Rotationally invariant grid construction     ... off

Total number of grid points                  ...    18419
Total number of batches                      ...      294
Average number of points per batch           ...       62
Average number of grid points per atom       ...     1151
UseSFitting                                  ... on

GRIDX 3
-------
General Integration Accuracy     IntAcc      ... 4.338
Radial Grid Type                 RadialGrid  ... OptM3 with GC (2021)
Angular Grid (max. ang.)         AngularGrid ... 3 (Lebedev-194)
Angular grid pruning method      GridPruning ... 4 (adaptive)
Weight generation scheme         WeightScheme... Becke
Basis function cutoff            BFCut       ... 1.0000e-10
Integration weight cutoff        WCut        ... 1.0000e-14
Angular grids for H and He will be reduced by one unit
Partially contracted basis set               ... on
Rotationally invariant grid construction     ... off

Total number of grid points                  ...    40296
Total number of batches                      ...      639
Average number of points per batch           ...       63
Average number of grid points per atom       ...     2518
UseSFitting                                  ... on

Time for X-Grid setup             =    0.618 sec

--------------
SCF ITERATIONS
--------------
ITER       Energy         Delta-E        Max-DP      RMS-DP      [F,P]     Damp
               ***  Starting incremental Fock matrix formation  ***
  0   -233.9210561959   0.000000000000 0.04962767  0.00195176  0.1204559 0.7000
  1   -233.9797744183  -0.058718222403 0.03238858  0.00143573  0.0681429 0.7000
                               ***Turning on DIIS***
  2   -234.0069725119  -0.027198093632 0.05258803  0.00266882  0.0314977 0.0000
  3   -234.0460476239  -0.039075111981 0.02256916  0.00105947  0.0366818 0.0000
  4   -234.0556233734  -0.009575749529 0.00429289  0.00022053  0.0054080 0.0000
                      *** Initiating the SOSCF procedure ***
                           *** Shutting down DIIS ***
                      *** Re-Reading the Fockian *** 
                      *** Removing any level shift *** 
ITER      Energy       Delta-E        Grad      Rot      Max-DP    RMS-DP
  5   -234.05593269  -0.0003093187  0.000488  0.000488  0.001546  0.000079
               *** Restarting incremental Fock matrix formation ***
  6   -234.05604125  -0.0001085571  0.000217  0.000759  0.000986  0.000053
  7   -234.05604199  -0.0000007365  0.000288  0.000529  0.000490  0.000017
  8   -234.05604316  -0.0000011696  0.000111  0.000203  0.000286  0.000012
  9   -234.05604314   0.0000000144  0.000064  0.000068  0.000142  0.000005
                 **** Energy Check signals convergence ****
              ***Rediagonalizing the Fockian in SOSCF/NRSCF***

               *****************************************************
               *                     SUCCESS                       *
               *           SCF CONVERGED AFTER  10 CYCLES          *
               *****************************************************

Old exchange energy                            =     -8.598820194 Eh
New exchange energy                            =     -8.598825605 Eh
Exchange energy change after final integration =     -0.000005411 Eh
Total energy after final integration           =   -234.056048749 Eh
Final COS-X integration done in                =     5.191 sec

----------------
TOTAL SCF ENERGY
----------------

Total Energy       :         -234.05604875 Eh           -6368.98888 eV

Components:
Nuclear Repulsion  :          221.53256604 Eh            6028.20759 eV
Electronic Energy  :         -455.58861479 Eh          -12397.19647 eV
One Electron Energy:         -752.50681776 Eh          -20476.75153 eV
Two Electron Energy:          296.91820297 Eh            8079.55506 eV
Max COSX asymmetry :            0.00000453 Eh               0.00012 eV

Virial components:
Potential Energy   :         -465.08479790 Eh          -12655.60075 eV
Kinetic Energy     :          231.02874915 Eh            6286.61187 eV
Virial Ratio       :            2.01310356


DFT components:
N(Alpha)           :       23.000010561652 electrons
N(Beta)            :       23.000010561652 electrons
N(Total)           :       46.000021123304 electrons
E(X)               :      -25.693764382927 Eh       
E(C)               :       -1.485800795267 Eh       
E(XC)              :      -27.179565178194 Eh       
DFET-embed. en.    :        0.000000000000 Eh       

---------------
SCF CONVERGENCE
---------------

  Last Energy change         ...   -1.9711e-07  Tolerance :   1.0000e-06
  Last MAX-Density change    ...    4.8850e-15  Tolerance :   1.0000e-05
  Last RMS-Density change    ...    6.6297e-17  Tolerance :   1.0000e-06
  Last Orbital Gradient      ...    6.4637e-06  Tolerance :   5.0000e-05
  Last Orbital Rotation      ...    8.8824e-06  Tolerance :   5.0000e-05

             **** THE GBW FILE WAS UPDATED (5ZPuRE_ll_ad_2-3_4-5_hess_orca.gbw) ****
             **** DENSITY 5ZPuRE_ll_ad_2-3_4-5_hess_orca.scfp WAS UPDATED ****
             **** ENERGY FILE WAS UPDATED (5ZPuRE_ll_ad_2-3_4-5_hess_orca.en.tmp) ****
             **** THE GBW FILE WAS UPDATED (5ZPuRE_ll_ad_2-3_4-5_hess_orca.gbw) ****
             **** DENSITY 5ZPuRE_ll_ad_2-3_4-5_hess_orca.scfp WAS UPDATED ****
----------------
ORBITAL ENERGIES
----------------

  NO   OCC          E(Eh)            E(eV) 
   0   2.0000     -10.246957      -278.8339 
   1   2.0000     -10.246701      -278.8269 
   2   2.0000     -10.244301      -278.7616 
   3   2.0000     -10.244283      -278.7611 
   4   2.0000     -10.227002      -278.2909 
   5   2.0000     -10.226173      -278.2683 
   6   2.0000      -0.813962       -22.1490 
   7   2.0000      -0.756436       -20.5837 
   8   2.0000      -0.725949       -19.7541 
   9   2.0000      -0.640200       -17.4207 
  10   2.0000      -0.595651       -16.2085 
  11   2.0000      -0.517894       -14.0926 
  12   2.0000      -0.481745       -13.1089 
  13   2.0000      -0.460212       -12.5230 
  14   2.0000      -0.426885       -11.6161 
  15   2.0000      -0.426263       -11.5992 
  16   2.0000      -0.422625       -11.5002 
  17   2.0000      -0.403659       -10.9841 
  18   2.0000      -0.379295       -10.3211 
  19   2.0000      -0.364239        -9.9115 
  20   2.0000      -0.284811        -7.7501 
  21   2.0000      -0.261293        -7.1101 
  22   2.0000      -0.227129        -6.1805 
  23   0.0000       0.000381         0.0104 
  24   0.0000       0.039430         1.0729 
  25   0.0000       0.062300         1.6953 
  26   0.0000       0.074045         2.0149 
  27   0.0000       0.107442         2.9236 
  28   0.0000       0.108465         2.9515 
  29   0.0000       0.122008         3.3200 
  30   0.0000       0.143196         3.8966 
  31   0.0000       0.153575         4.1790 
  32   0.0000       0.169280         4.6063 
  33   0.0000       0.170433         4.6377 
  34   0.0000       0.178145         4.8476 
  35   0.0000       0.190644         5.1877 
  36   0.0000       0.262366         7.1393 
  37   0.0000       0.281505         7.6602 
  38   0.0000       0.341054         9.2806 
  39   0.0000       0.403356        10.9759 
  40   0.0000       0.403906        10.9908 
  41   0.0000       0.437818        11.9136 
  42   0.0000       0.442785        12.0488 
  43   0.0000       0.467665        12.7258 
  44   0.0000       0.507531        13.8106 
  45   0.0000       0.520836        14.1727 
  46   0.0000       0.522134        14.2080 
  47   0.0000       0.544108        14.8059 
  48   0.0000       0.564021        15.3478 
  49   0.0000       0.588968        16.0266 
  50   0.0000       0.608345        16.5539 
  51   0.0000       0.628849        17.1118 
  52   0.0000       0.645558        17.5665 
  53   0.0000       0.652003        17.7419 
  54   0.0000       0.680630        18.5209 
  55   0.0000       0.684006        18.6127 
  56   0.0000       0.692699        18.8493 
  57   0.0000       0.700850        19.0711 
  58   0.0000       0.706071        19.2132 
  59   0.0000       0.712515        19.3885 
  60   0.0000       0.720431        19.6039 
  61   0.0000       0.730403        19.8753 
  62   0.0000       0.734798        19.9949 
  63   0.0000       0.734862        19.9966 
  64   0.0000       0.738471        20.0948 
  65   0.0000       0.742636        20.2082 
  66   0.0000       0.755132        20.5482 
  67   0.0000       0.839955        22.8563 
  68   0.0000       0.884252        24.0617 
  69   0.0000       0.973328        26.4856 
  70   0.0000       0.975858        26.5545 
  71   0.0000       1.061897        28.8957 
  72   0.0000       1.139533        31.0083 
  73   0.0000       1.166127        31.7319 
  74   0.0000       1.218696        33.1624 
  75   0.0000       1.256497        34.1910 
  76   0.0000       1.262590        34.3568 
  77   0.0000       1.269276        34.5388 
  78   0.0000       1.303110        35.4594 
  79   0.0000       1.447057        39.3764 
  80   0.0000       1.497064        40.7372 
  81   0.0000       1.548415        42.1345 
  82   0.0000       1.557357        42.3778 
  83   0.0000       1.578624        42.9565 
  84   0.0000       1.609361        43.7929 
  85   0.0000       1.658307        45.1248 
  86   0.0000       1.686353        45.8880 
  87   0.0000       1.702424        46.3253 
  88   0.0000       1.748444        47.5776 
  89   0.0000       1.754092        47.7313 
  90   0.0000       1.776159        48.3318 
  91   0.0000       1.785241        48.5789 
  92   0.0000       1.807807        49.1929 
  93   0.0000       1.824330        49.6426 
  94   0.0000       1.852321        50.4042 
  95   0.0000       1.879187        51.1353 
  96   0.0000       1.901095        51.7314 
  97   0.0000       1.912358        52.0379 
  98   0.0000       1.931136        52.5489 
  99   0.0000       1.946796        52.9750 
 100   0.0000       1.957540        53.2674 
 101   0.0000       1.986137        54.0455 
 102   0.0000       2.012140        54.7531 
 103   0.0000       2.046753        55.6950 
 104   0.0000       2.061128        56.0861 
 105   0.0000       2.093832        56.9761 
 106   0.0000       2.109336        57.3979 
 107   0.0000       2.148776        58.4712 
 108   0.0000       2.160547        58.7915 
 109   0.0000       2.253846        61.3303 
 110   0.0000       2.266423        61.6725 
 111   0.0000       2.275697        61.9249 
 112   0.0000       2.352165        64.0057 
 113   0.0000       2.374583        64.6157 
 114   0.0000       2.393690        65.1356 
 115   0.0000       2.439949        66.3944 
 116   0.0000       2.447083        66.5885 
 117   0.0000       2.469130        67.1884 
 118   0.0000       2.485884        67.6443 
 119   0.0000       2.622370        71.3583 
 120   0.0000       2.668403        72.6109 
 121   0.0000       2.715668        73.8971 
 122   0.0000       2.723810        74.1186 
 123   0.0000       2.844305        77.3975 
 124   0.0000       2.865546        77.9755 
 125   0.0000       2.888884        78.6105 
 126   0.0000       2.905355        79.0587 
 127   0.0000       2.954466        80.3951 
 128   0.0000       2.980009        81.0902 
 129   0.0000       3.013997        82.0150 
 130   0.0000       3.031453        82.4900 
 131   0.0000       3.044506        82.8452 
 132   0.0000       3.116009        84.7909 
 133   0.0000       3.313833        90.1740 

                    ********************************
                    * MULLIKEN POPULATION ANALYSIS *
                    ********************************

-----------------------
MULLIKEN ATOMIC CHARGES
-----------------------
   0 C :   -0.089831
   1 C :   -0.089430
   2 C :   -0.071970
   3 C :   -0.095787
   4 C :   -0.095556
   5 C :   -0.071879
   6 H :    0.028668
   7 H :    0.028564
   8 H :    0.055890
   9 H :    0.062043
  10 H :    0.056037
  11 H :    0.054626
  12 H :    0.054671
  13 H :    0.056228
  14 H :    0.055336
  15 H :    0.062389
Sum of atomic charges:    0.0000000

--------------------------------
MULLIKEN REDUCED ORBITAL CHARGES
--------------------------------
  0 C s       :     3.116091  s :     3.116091
      pz      :     1.012342  p :     2.936299
      px      :     0.991062
      py      :     0.932895
      dz2     :     0.002469  d :     0.037440
      dxz     :     0.007581
      dyz     :     0.002919
      dx2y2   :     0.009726
      dxy     :     0.014744
  1 C s       :     3.116171  s :     3.116171
      pz      :     1.011938  p :     2.935815
      px      :     1.001196
      py      :     0.922681
      dz2     :     0.002389  d :     0.037444
      dxz     :     0.008926
      dyz     :     0.001521
      dx2y2   :     0.012910
      dxy     :     0.011699
  2 C s       :     3.098913  s :     3.098913
      pz      :     0.993978  p :     2.946076
      px      :     0.998664
      py      :     0.953435
      dz2     :     0.004959  d :     0.026981
      dxz     :     0.009768
      dyz     :     0.001800
      dx2y2   :     0.004824
      dxy     :     0.005630
  3 C s       :     3.144930  s :     3.144930
      pz      :     0.999849  p :     2.922774
      px      :     0.953323
      py      :     0.969602
      dz2     :     0.008537  d :     0.028083
      dxz     :     0.006732
      dyz     :     0.002444
      dx2y2   :     0.003958
      dxy     :     0.006412
  4 C s       :     3.145271  s :     3.145271
      pz      :     1.003129  p :     2.922222
      px      :     0.948725
      py      :     0.970368
      dz2     :     0.009232  d :     0.028063
      dxz     :     0.005791
      dyz     :     0.001871
      dx2y2   :     0.003647
      dxy     :     0.007521
  5 C s       :     3.099389  s :     3.099389
      pz      :     0.991548  p :     2.945515
      px      :     1.009312
      py      :     0.944655
      dz2     :     0.003999  d :     0.026975
      dxz     :     0.007805
      dyz     :     0.004678
      dx2y2   :     0.005173
      dxy     :     0.005320
  6 H s       :     0.947379  s :     0.947379
      pz      :     0.005101  p :     0.023953
      px      :     0.008018
      py      :     0.010834
  7 H s       :     0.947477  s :     0.947477
      pz      :     0.005228  p :     0.023959
      px      :     0.004948
      py      :     0.013783
  8 H s       :     0.919956  s :     0.919956
      pz      :     0.011003  p :     0.024153
      px      :     0.008502
      py      :     0.004649
  9 H s       :     0.913804  s :     0.913804
      pz      :     0.012965  p :     0.024153
      px      :     0.006583
      py      :     0.004605
 10 H s       :     0.920300  s :     0.920300
      pz      :     0.014415  p :     0.023663
      px      :     0.004549
      py      :     0.004699
 11 H s       :     0.921361  s :     0.921361
      pz      :     0.005707  p :     0.024013
      px      :     0.011805
      py      :     0.006501
 12 H s       :     0.921309  s :     0.921309
      pz      :     0.004745  p :     0.024020
      px      :     0.008888
      py      :     0.010388
 13 H s       :     0.920100  s :     0.920100
      pz      :     0.013875  p :     0.023671
      px      :     0.004416
      py      :     0.005380
 14 H s       :     0.920537  s :     0.920537
      pz      :     0.011042  p :     0.024126
      px      :     0.008722
      py      :     0.004363
 15 H s       :     0.913437  s :     0.913437
      pz      :     0.011693  p :     0.024173
      px      :     0.005995
      py      :     0.006485


                     *******************************
                     * LOEWDIN POPULATION ANALYSIS *
                     *******************************

----------------------
LOEWDIN ATOMIC CHARGES
----------------------
   0 C :   -0.059264
   1 C :   -0.058995
   2 C :   -0.039830
   3 C :   -0.037949
   4 C :   -0.037637
   5 C :   -0.039560
   6 H :    0.031854
   7 H :    0.031843
   8 H :    0.027867
   9 H :    0.029509
  10 H :    0.024080
  11 H :    0.023333
  12 H :    0.023413
  13 H :    0.024143
  14 H :    0.027672
  15 H :    0.029522

-------------------------------
LOEWDIN REDUCED ORBITAL CHARGES
-------------------------------
  0 C s       :     2.862212  s :     2.862212
      pz      :     0.983306  p :     3.101277
      px      :     1.080236
      py      :     1.037736
      dz2     :     0.006099  d :     0.095775
      dxz     :     0.015242
      dyz     :     0.005656
      dx2y2   :     0.027401
      dxy     :     0.041377
  1 C s       :     2.862273  s :     2.862273
      pz      :     0.982462  p :     3.100968
      px      :     1.081237
      py      :     1.037270
      dz2     :     0.005989  d :     0.095754
      dxz     :     0.017682
      dyz     :     0.002951
      dx2y2   :     0.034998
      dxy     :     0.034134
  2 C s       :     2.895097  s :     2.895097
      pz      :     1.067013  p :     3.079274
      px      :     1.034551
      py      :     0.977710
      dz2     :     0.013906  d :     0.065459
      dxz     :     0.024455
      dyz     :     0.003246
      dx2y2   :     0.010061
      dxy     :     0.013790
  3 C s       :     2.895751  s :     2.895751
      pz      :     1.065950  p :     3.073765
      px      :     1.047995
      py      :     0.959821
      dz2     :     0.021179  d :     0.068433
      dxz     :     0.018834
      dyz     :     0.004533
      dx2y2   :     0.010246
      dxy     :     0.013641
  4 C s       :     2.895723  s :     2.895723
      pz      :     1.054287  p :     3.073515
      px      :     1.021089
      py      :     0.998140
      dz2     :     0.022104  d :     0.068399
      dxz     :     0.015430
      dyz     :     0.004485
      dx2y2   :     0.008130
      dxy     :     0.018249
  5 C s       :     2.895000  s :     2.895000
      pz      :     1.059244  p :     3.079093
      px      :     1.014169
      py      :     1.005680
      dz2     :     0.010696  d :     0.065468
      dxz     :     0.018970
      dyz     :     0.011661
      dx2y2   :     0.010925
      dxy     :     0.013216
  6 H s       :     0.898199  s :     0.898199
      pz      :     0.015953  p :     0.069947
      px      :     0.021685
      py      :     0.032309
  7 H s       :     0.898196  s :     0.898196
      pz      :     0.016250  p :     0.069961
      px      :     0.014131
      py      :     0.039581
  8 H s       :     0.898725  s :     0.898725
      pz      :     0.031179  p :     0.073408
      px      :     0.025903
      py      :     0.016326
  9 H s       :     0.897103  s :     0.897103
      pz      :     0.037427  p :     0.073388
      px      :     0.019817
      py      :     0.016145
 10 H s       :     0.904219  s :     0.904219
      pz      :     0.042483  p :     0.071701
      px      :     0.013187
      py      :     0.016031
 11 H s       :     0.903753  s :     0.903753
      pz      :     0.016111  p :     0.072914
      px      :     0.034966
      py      :     0.021837
 12 H s       :     0.903663  s :     0.903663
      pz      :     0.013474  p :     0.072925
      px      :     0.026696
      py      :     0.032755
 13 H s       :     0.904121  s :     0.904121
      pz      :     0.041695  p :     0.071737
      px      :     0.013882
      py      :     0.016159
 14 H s       :     0.899019  s :     0.899019
      pz      :     0.031166  p :     0.073309
      px      :     0.027625
      py      :     0.014518
 15 H s       :     0.897000  s :     0.897000
      pz      :     0.034468  p :     0.073478
      px      :     0.018874
      py      :     0.020136


                      *****************************
                      * MAYER POPULATION ANALYSIS *
                      *****************************

  NA   - Mulliken gross atomic population
  ZA   - Total nuclear charge
  QA   - Mulliken gross atomic charge
  VA   - Mayer's total valence
  BVA  - Mayer's bonded valence
  FA   - Mayer's free valence

  ATOM       NA         ZA         QA         VA         BVA        FA
  0 C      6.0898     6.0000    -0.0898     4.0459     4.0459     0.0000
  1 C      6.0894     6.0000    -0.0894     4.0458     4.0458    -0.0000
  2 C      6.0720     6.0000    -0.0720     3.9319     3.9319     0.0000
  3 C      6.0958     6.0000    -0.0958     4.0058     4.0058     0.0000
  4 C      6.0956     6.0000    -0.0956     4.0063     4.0063     0.0000
  5 C      6.0719     6.0000    -0.0719     3.9322     3.9322     0.0000
  6 H      0.9713     1.0000     0.0287     0.9800     0.9800     0.0000
  7 H      0.9714     1.0000     0.0286     0.9800     0.9800    -0.0000
  8 H      0.9441     1.0000     0.0559     0.9754     0.9754     0.0000
  9 H      0.9380     1.0000     0.0620     0.9745     0.9745     0.0000
 10 H      0.9440     1.0000     0.0560     0.9728     0.9728     0.0000
 11 H      0.9454     1.0000     0.0546     0.9680     0.9680     0.0000
 12 H      0.9453     1.0000     0.0547     0.9681     0.9681     0.0000
 13 H      0.9438     1.0000     0.0562     0.9728     0.9728    -0.0000
 14 H      0.9447     1.0000     0.0553     0.9753     0.9753    -0.0000
 15 H      0.9376     1.0000     0.0624     0.9746     0.9746     0.0000

  Mayer bond orders larger than 0.100000
B(  0-C ,  1-C ) :   1.9745 B(  0-C ,  5-C ) :   1.0524 B(  0-C ,  6-H ) :   0.9436 
B(  1-C ,  2-C ) :   1.0520 B(  1-C ,  7-H ) :   0.9434 B(  2-C ,  3-C ) :   0.9533 
B(  2-C ,  8-H ) :   0.9483 B(  2-C ,  9-H ) :   0.9455 B(  3-C ,  4-C ) :   1.1218 
B(  3-C , 10-H ) :   0.9620 B(  3-C , 11-H ) :   0.9518 B(  4-C ,  5-C ) :   0.9533 
B(  4-C , 12-H ) :   0.9518 B(  4-C , 13-H ) :   0.9621 B(  5-C , 14-H ) :   0.9484 
B(  5-C , 15-H ) :   0.9456 


------------------
HIRSHFELD ANALYSIS
------------------

Total integrated alpha density =     23.000010561
Total integrated beta density  =     23.000010561

  ATOM     CHARGE      SPIN    
   0 C   -0.046577    0.000000
   1 C   -0.046440    0.000000
   2 C   -0.043860    0.000000
   3 C   -0.041018    0.000000
   4 C   -0.040971    0.000000
   5 C   -0.043762    0.000000
   6 H    0.028616    0.000000
   7 H    0.028609    0.000000
   8 H    0.026530    0.000000
   9 H    0.026581    0.000000
  10 H    0.025674    0.000000
  11 H    0.023837    0.000000
  12 H    0.023917    0.000000
  13 H    0.025778    0.000000
  14 H    0.026365    0.000000
  15 H    0.026701    0.000000

  TOTAL  -0.000021    0.000000

-------
TIMINGS
-------

Total SCF time: 0 days 0 hours 0 min 32 sec 

Total time                  ....      32.662 sec
Sum of individual times     ....      32.566 sec  ( 99.7%)

Fock matrix formation       ....      30.674 sec  ( 93.9%)
  Split-RI-J                ....       1.975 sec  (  6.4% of F)
  Chain of spheres X        ....      23.342 sec  ( 76.1% of F)
  XC integration            ....       5.337 sec  ( 17.4% of F)
    Basis function eval.    ....       2.012 sec  ( 37.7% of XC)
    Density eval.           ....       1.398 sec  ( 26.2% of XC)
    XC-Functional eval.     ....       0.428 sec  (  8.0% of XC)
    XC-Potential eval.      ....       1.320 sec  ( 24.7% of XC)
Diagonalization             ....       0.015 sec  (  0.0%)
Density matrix formation    ....       0.002 sec  (  0.0%)
Population analysis         ....       0.299 sec  (  0.9%)
Initial guess               ....       0.229 sec  (  0.7%)
Orbital Transformation      ....       0.000 sec  (  0.0%)
Orbital Orthonormalization  ....       0.000 sec  (  0.0%)
DIIS solution               ....       0.003 sec  (  0.0%)
SOSCF solution              ....       0.007 sec  (  0.0%)
Grid generation             ....       1.337 sec  (  4.1%)

Maximum memory used throughout the entire SCF-calculation: 62.0 MB


-------------------------------------------------------------------------------
                          DFT DISPERSION CORRECTION                            
                                                                               
                              DFTD3 V3.1  Rev 1                                
                          USING Becke-Johnson damping                          
-------------------------------------------------------------------------------
The PBE0 functional is recognized
Active option DFTDOPT                   ...         4   

molecular C6(AA) [au] = 2234.623190 


            DFT-D V3
 parameters
 s6 scaling factor         :     1.0000 
 a1 scaling factor         :     0.4145 
 s8 scaling factor         :     1.2177 
 a2 scaling factor         :     4.8593 
 ad hoc parameters k1-k3   :    16.0000     1.3333    -4.0000 

 Edisp/kcal,au: -7.759186102579  -0.012365048809 
 E6   /kcal   :  -4.948179408 
 E8   /kcal   :  -2.811006695 
 % E8         :  36.228112812 

-------------------------   ----------------
Dispersion correction           -0.012365049
-------------------------   ----------------


-------------------------   --------------------
FINAL SINGLE POINT ENERGY      -234.068413798151
-------------------------   --------------------


                            ***************************************
                            *     ORCA property calculations      *
                            ***************************************

                                    ---------------------
                                    Active property flags
                                    ---------------------
   (+) Dipole Moment


------------------------------------------------------------------------------
                       ORCA ELECTRIC PROPERTIES CALCULATION
------------------------------------------------------------------------------

Dipole Moment Calculation                       ... on
Quadrupole Moment Calculation                   ... off
Polarizability Calculation                      ... off
GBWName                                         ... 5ZPuRE_ll_ad_2-3_4-5_hess_orca.gbw
Electron density                                ... 5ZPuRE_ll_ad_2-3_4-5_hess_orca.scfp
The origin for moment calculation is the CENTER OF MASS  = (-0.039518, -0.227202 -0.036545)

-------------
DIPOLE MOMENT
-------------
                                X             Y             Z
Electronic contribution:     -0.32656      -1.88138      -0.30287
Nuclear contribution   :      0.34272       1.97000       0.31713
                        -----------------------------------------
Total Dipole Moment    :      0.01616       0.08861       0.01426
                        -----------------------------------------
Magnitude (a.u.)       :      0.09120
Magnitude (Debye)      :      0.23180



--------------------
Rotational spectrum 
--------------------
 
Rotational constants in cm-1:     0.142213     0.117710     0.070330 
Rotational constants in MHz :  4263.429773  3528.843102  2108.425587 

 Dipole components along the rotational axes: 
x,y,z [a.u.] :     0.091191     0.001000     0.000012 
x,y,z [Debye]:     0.231788     0.002541     0.000031 

 

-------------------------------------------------------------------------------
                               ORCA SCF HESSIAN
-------------------------------------------------------------------------------

                   --------- SHARK INITIALIZATION DONE ---------

Hessian of the Kohn-Sham DFT energy:
Kohn-Sham wavefunction type                      ... RKS
Hartree-Fock exchange scaling                    ...    0.250
Number of operators                              ...    1
Number of atoms                                  ...   16
Basis set dimensions                             ...  134
Integral neglect threshold                       ... 1.0e-10
Integral primitive cutoff                        ... 1.0e-11

Setting up DFT Hessian calculations              ... 

HESS GRID
---------

General Integration Accuracy     IntAcc      ... 4.629
Radial Grid Type                 RadialGrid  ... OptM3 with GC (2021)
Angular Grid (max. ang.)         AngularGrid ... 5 (Lebedev-434)
Angular grid pruning method      GridPruning ... 4 (adaptive)
Weight generation scheme         WeightScheme... Becke
Basis function cutoff            BFCut       ... 1.0000e-10
Integration weight cutoff        WCut        ... 1.0000e-14
Angular grids for H and He will be reduced by one unit
Partially contracted basis set               ... off
Rotationally invariant grid construction     ... off

Total number of grid points                  ...   105960
Total number of batches                      ...     1665
Average number of points per batch           ...       63
Average number of grid points per atom       ...     6622

Building densities                               ... done   (      0.0 sec)
Calculating rho(r) on the grid                   ... done   (      0.5 sec)
Building xc-kernel on the grid                   ... done   (      0.1 sec)
                                                     done   (      1.8 sec)

Nuclear repulsion Hessian  (SHARK)               ... done   (      0.0 sec)

----------------------------------------------
Forming right-hand sides of CP-SCF equations     ...
----------------------------------------------
One electron integral derivatives  (SHARK)       ... done   (      0.1 sec)
Transforming the overlap derivative matrices     ... done   (      0.0 sec)
Making the Q(x) pseudodensities                  ... done   (      0.0 sec)
Adding the E*S(x)*S(y) terms to the Hessian      ... done   (      0.0 sec)
Calculating energy weighted overlap derivatives  ... done   (      0.0 sec)
Two electron integral derivatives (SHARK-RI)     ... done   (     11.9 sec)
Exchange-correlation integral derivatives        ... done   (     53.8 sec)
tr(F(y)Q(x)) contribution to the Hessian         ... done   (      0.0 sec)
Response fock operator R(S(x)) (SHARK-RIJCOSX)   ... done   (      9.1 sec)
XC Response fock operator R(S(x))                ... done   (     18.2 sec)
tr(F(y)S(x)) contribution to the Hessian         ... done   (      0.0 sec)
Transforming and finalizing RHSs                 ... done   (      0.0 sec)

----------------------------------------------
Solving the CP-SCF equations (RIJCOSX)           ...
----------------------------------------------
     CP-SCF ITERATION   0:   2.6120e-01 (   5.7 sec   0/ 48 done)
     CP-SCF ITERATION   1:   4.6795e-02 (   5.9 sec   0/ 48 done)
     CP-SCF ITERATION   2:   1.0322e-02 (   5.8 sec   0/ 48 done)
     CP-SCF ITERATION   3:   3.0699e-03 (   6.9 sec  12/ 48 done)
     CP-SCF ITERATION   4:   1.1804e-03 (   5.5 sec  43/ 48 done)
     CP-SCF ITERATION   5:   3.4457e-04 (   2.2 sec  48/ 48 done)
                    *** THE CP-SCF HAS CONVERGED ***

                                                 ... done   (     32.1 sec)
Forming perturbed density Hessian contributions  ... done   (      0.0 sec)
2nd integral derivative contribs (SHARK-RI)      ... done   (     54.8 sec)
Exchange-correlation Hessian                     ... done   (     56.4 sec)
Dispersion correction in the Hessian             ... done   (      3.2 sec)
Dipole derivatives                               ... (center of mass: -0.039518, -0.227202 -0.036545)done   (      0.1 sec)

Total SCF Hessian time: 0 days 0 hours 4 min 1 sec 

Writing the Hessian file to the disk             ... done


Maximum memory used throughout the entire SCFHESS-calculation: 119.0 MB

-----------------------
VIBRATIONAL FREQUENCIES
-----------------------

Scaling factor for frequencies =  1.000000000  (already applied!)

   0:         0.00 cm**-1
   1:         0.00 cm**-1
   2:         0.00 cm**-1
   3:         0.00 cm**-1
   4:         0.00 cm**-1
   5:         0.00 cm**-1
   6:      -272.49 cm**-1 ***imaginary mode***
   7:      -261.78 cm**-1 ***imaginary mode***
   8:      -172.63 cm**-1 ***imaginary mode***
   9:        80.56 cm**-1
  10:       289.53 cm**-1
  11:       299.27 cm**-1
  12:       433.25 cm**-1
  13:       511.06 cm**-1
  14:       578.19 cm**-1
  15:       623.52 cm**-1
  16:       681.97 cm**-1
  17:       780.74 cm**-1
  18:       807.33 cm**-1
  19:       903.17 cm**-1
  20:       916.84 cm**-1
  21:       920.91 cm**-1
  22:       951.63 cm**-1
  23:       955.37 cm**-1
  24:      1003.24 cm**-1
  25:      1038.89 cm**-1
  26:      1054.65 cm**-1
  27:      1057.17 cm**-1
  28:      1127.33 cm**-1
  29:      1161.41 cm**-1
  30:      1206.05 cm**-1
  31:      1239.99 cm**-1
  32:      1373.53 cm**-1
  33:      1393.37 cm**-1
  34:      1393.86 cm**-1
  35:      1428.02 cm**-1
  36:      1447.30 cm**-1
  37:      1814.40 cm**-1
  38:      3222.55 cm**-1
  39:      3242.49 cm**-1
  40:      3254.07 cm**-1
  41:      3256.08 cm**-1
  42:      3258.59 cm**-1
  43:      3262.29 cm**-1
  44:      3354.02 cm**-1
  45:      3354.77 cm**-1
  46:      3363.66 cm**-1
  47:      3377.80 cm**-1


------------
NORMAL MODES
------------

These modes are the Cartesian displacements weighted by the diagonal matrix
M(i,i)=1/sqrt(m[i]) where m[i] is the mass of the displaced atom
Thus, these vectors are normalized but *not* orthogonal

                  0          1          2          3          4          5    
      0       0.000000   0.000000   0.000000   0.000000   0.000000   0.000000
      1       0.000000   0.000000   0.000000   0.000000   0.000000   0.000000
      2       0.000000   0.000000   0.000000   0.000000   0.000000   0.000000
      3       0.000000   0.000000   0.000000   0.000000   0.000000   0.000000
      4       0.000000   0.000000   0.000000   0.000000   0.000000   0.000000
      5       0.000000   0.000000   0.000000   0.000000   0.000000   0.000000
      6       0.000000   0.000000   0.000000   0.000000   0.000000   0.000000
      7       0.000000   0.000000   0.000000   0.000000   0.000000   0.000000
      8       0.000000   0.000000   0.000000   0.000000   0.000000   0.000000
      9       0.000000   0.000000   0.000000   0.000000   0.000000   0.000000
     10       0.000000   0.000000   0.000000   0.000000   0.000000   0.000000
     11       0.000000   0.000000   0.000000   0.000000   0.000000   0.000000
     12       0.000000   0.000000   0.000000   0.000000   0.000000   0.000000
     13       0.000000   0.000000   0.000000   0.000000   0.000000   0.000000
     14       0.000000   0.000000   0.000000   0.000000   0.000000   0.000000
     15       0.000000   0.000000   0.000000   0.000000   0.000000   0.000000
     16       0.000000   0.000000   0.000000   0.000000   0.000000   0.000000
     17       0.000000   0.000000   0.000000   0.000000   0.000000   0.000000
     18       0.000000   0.000000   0.000000   0.000000   0.000000   0.000000
     19       0.000000   0.000000   0.000000   0.000000   0.000000   0.000000
     20       0.000000   0.000000   0.000000   0.000000   0.000000   0.000000
     21       0.000000   0.000000   0.000000   0.000000   0.000000   0.000000
     22       0.000000   0.000000   0.000000   0.000000   0.000000   0.000000
     23       0.000000   0.000000   0.000000   0.000000   0.000000   0.000000
     24       0.000000   0.000000   0.000000   0.000000   0.000000   0.000000
     25       0.000000   0.000000   0.000000   0.000000   0.000000   0.000000
     26       0.000000   0.000000   0.000000   0.000000   0.000000   0.000000
     27       0.000000   0.000000   0.000000   0.000000   0.000000   0.000000
     28       0.000000   0.000000   0.000000   0.000000   0.000000   0.000000
     29       0.000000   0.000000   0.000000   0.000000   0.000000   0.000000
     30       0.000000   0.000000   0.000000   0.000000   0.000000   0.000000
     31       0.000000   0.000000   0.000000   0.000000   0.000000   0.000000
     32       0.000000   0.000000   0.000000   0.000000   0.000000   0.000000
     33       0.000000   0.000000   0.000000   0.000000   0.000000   0.000000
     34       0.000000   0.000000   0.000000   0.000000   0.000000   0.000000
     35       0.000000   0.000000   0.000000   0.000000   0.000000   0.000000
     36       0.000000   0.000000   0.000000   0.000000   0.000000   0.000000
     37       0.000000   0.000000   0.000000   0.000000   0.000000   0.000000
     38       0.000000   0.000000   0.000000   0.000000   0.000000   0.000000
     39       0.000000   0.000000   0.000000   0.000000   0.000000   0.000000
     40       0.000000   0.000000   0.000000   0.000000   0.000000   0.000000
     41       0.000000   0.000000   0.000000   0.000000   0.000000   0.000000
     42       0.000000   0.000000   0.000000   0.000000   0.000000   0.000000
     43       0.000000   0.000000   0.000000   0.000000   0.000000   0.000000
     44       0.000000   0.000000   0.000000   0.000000   0.000000   0.000000
     45       0.000000   0.000000   0.000000   0.000000   0.000000   0.000000
     46       0.000000   0.000000   0.000000   0.000000   0.000000   0.000000
     47       0.000000   0.000000   0.000000   0.000000   0.000000   0.000000
                  6          7          8          9         10         11    
      0      -0.018544  -0.002203  -0.041470   0.001324   0.001006  -0.050383
      1      -0.068522  -0.015696  -0.091500   0.004010  -0.069930  -0.043643
      2       0.029770  -0.078157  -0.061239   0.013620   0.181822   0.039423
      3      -0.008020  -0.001366  -0.006150   0.001317  -0.010496  -0.036883
      4      -0.056420  -0.040570   0.114227   0.009625  -0.014290   0.042454
      5       0.063881  -0.060481  -0.029918  -0.012061  -0.199881   0.030124
      6       0.037034   0.042050  -0.126319   0.015917  -0.040561  -0.038566
      7      -0.112758  -0.136929   0.271412  -0.003263   0.002731   0.061919
      8      -0.097316   0.099296   0.049907  -0.061790  -0.004299  -0.014024
      9      -0.001886  -0.016458   0.138929   0.084595   0.017955   0.098157
     10       0.186354   0.149855  -0.256512  -0.031996   0.018540   0.120767
     11       0.050732  -0.043477   0.000449   0.116857   0.030025  -0.026659
     12       0.086265   0.038754   0.217119  -0.081115  -0.017830   0.053898
     13       0.174919   0.125134   0.180752   0.037188   0.047866  -0.124924
     14       0.100968  -0.012229   0.076923  -0.115603  -0.013307  -0.069281
     15      -0.106996  -0.045718  -0.208959  -0.022484   0.047215  -0.053154
     16      -0.118661  -0.078549  -0.214647  -0.019296  -0.006831  -0.041025
     17      -0.137302   0.083171  -0.033205   0.058419   0.006261  -0.030791
     18       0.042055  -0.000348   0.102642   0.010753  -0.020843  -0.003269
     19      -0.148343   0.018693  -0.201980  -0.005137  -0.071195  -0.087145
     20       0.256523  -0.353282  -0.082352   0.025099   0.317232   0.098666
     21      -0.031326  -0.060012   0.168047  -0.007168   0.010598   0.021086
     22      -0.109156  -0.019095   0.173604   0.008833   0.015227   0.052352
     23       0.325700  -0.317120  -0.027934  -0.025887  -0.335461   0.081625
     24      -0.214968   0.222211  -0.004197  -0.134772   0.247927   0.100608
     25       0.072983  -0.171289   0.144980   0.072261   0.028361  -0.119642
     26      -0.309823   0.257274   0.148289  -0.192305   0.243800   0.107542
     27       0.280706  -0.234834  -0.165860   0.200872  -0.378315  -0.200881
     28      -0.159412   0.059091   0.112288  -0.139592  -0.031355   0.201458
     29      -0.227521   0.242383   0.074197  -0.161622   0.172073   0.073521
     30       0.009004  -0.016698  -0.016157   0.349368   0.081191   0.286584
     31       0.242297   0.047940  -0.259611   0.134949   0.076309   0.431241
     32       0.061031  -0.056629   0.021044   0.100874   0.029480  -0.006741
     33       0.119653   0.058958   0.179904   0.032482   0.015959   0.060464
     34      -0.065250   0.021483  -0.135349  -0.146228  -0.028305  -0.044888
     35       0.076261  -0.070611  -0.224736   0.389603   0.097294   0.281660
     36      -0.094341  -0.093660   0.229859  -0.053659  -0.027626   0.053411
     37       0.016504   0.003808   0.132260   0.002990   0.018592  -0.064084
     38       0.059357  -0.090008  -0.166623  -0.414965  -0.133863   0.266794
     39       0.050355   0.055436   0.077987  -0.279606  -0.067482   0.124143
     40       0.087842   0.197930   0.222047   0.268138   0.162499  -0.462447
     41       0.082538  -0.000293   0.103385  -0.033775   0.019383  -0.155061
     42      -0.230521   0.228845  -0.071886   0.136451  -0.218860   0.098701
     43      -0.031214  -0.089239  -0.170615  -0.041979   0.173954   0.059300
     44      -0.250694   0.326248   0.083865   0.201272  -0.228528   0.109331
     45       0.214118  -0.339340  -0.180405  -0.249406   0.389759  -0.219929
     46       0.035203  -0.107997  -0.062097  -0.109782  -0.082972  -0.151413
     47      -0.201253   0.203559   0.036113   0.118341  -0.188808  -0.008843
                 12         13         14         15         16         17    
      0      -0.024614   0.045530  -0.076951  -0.003051  -0.037564  -0.010314
      1      -0.153085   0.044993  -0.044060  -0.043656  -0.039885  -0.040330
      2      -0.125114  -0.045615  -0.072167   0.040643   0.039032  -0.049393
      3      -0.035422   0.030158  -0.053759  -0.010329  -0.024915  -0.006960
      4      -0.178333  -0.044690   0.088179  -0.027525   0.035381  -0.046953
      5       0.075609  -0.056173  -0.050063  -0.054478   0.053132   0.032183
      6      -0.263873  -0.012390   0.030136  -0.039657   0.038030   0.014552
      7       0.117512  -0.015254   0.008788   0.010024   0.002651   0.016241
      8      -0.011058  -0.042217   0.047998   0.065047  -0.100971  -0.067347
      9       0.002234  -0.035911   0.053632   0.024238   0.018431   0.067896
     10       0.074352  -0.041919   0.080827   0.035406   0.000274   0.012560
     11       0.008423   0.009478   0.004433   0.036678   0.065921   0.035607
     12       0.024955  -0.019836   0.024712  -0.008120   0.012613  -0.060987
     13       0.065307   0.044947  -0.095341   0.048521  -0.025062   0.048637
     14       0.011513   0.024263  -0.023704  -0.021635   0.062053  -0.027342
     15       0.285631   0.003063   0.022241   0.044773   0.040242  -0.008991
     16       0.012821   0.031053  -0.032230   0.015563   0.015278  -0.002028
     17       0.035904  -0.032955   0.043353  -0.061501  -0.096082   0.071948
     18      -0.190264   0.024469  -0.017309  -0.047715  -0.029199  -0.056265
     19      -0.012242  -0.020856  -0.142032  -0.021635  -0.031380  -0.010006
     20      -0.203783   0.535014   0.334703   0.113704  -0.065179  -0.020190
     21       0.165839   0.005704   0.010140   0.043162  -0.011683   0.054760
     22      -0.120504  -0.145517   0.037947  -0.004982   0.055814  -0.027558
     23       0.140630   0.523644   0.367739  -0.095371  -0.049290   0.031000
     24      -0.292755   0.228586   0.025309  -0.210855   0.183788   0.149630
     25       0.107299   0.019044   0.067595   0.245098  -0.391808  -0.362661
     26      -0.036960   0.162962   0.044261  -0.083060   0.022231   0.043916
     27      -0.163321  -0.287615   0.028373   0.182558  -0.131547  -0.078243
     28       0.252088   0.015045  -0.332355  -0.330690   0.232200   0.058834
     29      -0.060022   0.103843   0.044980  -0.056051  -0.011321  -0.017643
     30       0.035841  -0.032919  -0.039575  -0.046165  -0.336364   0.062127
     31       0.280919   0.069693  -0.236350  -0.344977  -0.048867  -0.123848
     32       0.036657   0.027041  -0.030725  -0.013563   0.118012   0.012861
     33       0.078383   0.009963  -0.038402  -0.014611   0.019799  -0.171191
     34      -0.128906  -0.142803   0.356425   0.272765   0.216342   0.507974
     35       0.087942   0.030738  -0.132496  -0.168466  -0.214588   0.000136
     36      -0.113333   0.047205  -0.152891   0.089407  -0.033755   0.329359
     37      -0.069570   0.105124  -0.277662   0.177021  -0.124670   0.408910
     38      -0.121173   0.064062  -0.245821   0.231466  -0.270881   0.165099
     39       0.067098  -0.052529   0.045111  -0.074983  -0.308872  -0.085575
     40       0.272752  -0.048554   0.244433  -0.317995   0.121932  -0.091614
     41       0.051018   0.008456   0.049915  -0.092848   0.146534  -0.053300
     42       0.294767   0.203197  -0.004592   0.275001   0.287018  -0.254307
     43       0.004163  -0.140880  -0.074387   0.116802   0.269264  -0.256734
     44       0.045207   0.140436   0.018730   0.147855   0.128614  -0.148658
     45       0.249882  -0.272536   0.143687  -0.289394  -0.197270   0.106945
     46       0.145926   0.061755   0.282964  -0.248163  -0.163428   0.038187
     47       0.116760   0.110355   0.146286  -0.040315  -0.079205   0.038529
                 18         19         20         21         22         23    
      0      -0.102664  -0.048744   0.017096  -0.020175  -0.069731   0.012501
      1      -0.151008  -0.067753   0.039706  -0.009789  -0.017400  -0.018469
      2      -0.041993  -0.027845  -0.010880  -0.023861   0.003396   0.055180
      3      -0.045091   0.021313  -0.005256  -0.014542  -0.057448   0.022645
      4       0.185654  -0.083818   0.041070   0.017844   0.032003  -0.018046
      5       0.008375   0.004121   0.018332  -0.024078  -0.021725  -0.053477
      6       0.115509   0.087585  -0.033161   0.024008   0.076171  -0.003557
      7      -0.026682   0.008066  -0.009534  -0.018472  -0.022495   0.019110
      8       0.006145  -0.008220  -0.042375   0.059329  -0.013684  -0.028405
      9      -0.102588   0.011593   0.049511   0.013979   0.005017  -0.002409
     10      -0.085320  -0.006245   0.031956  -0.010774  -0.002726   0.000655
     11      -0.030865   0.025794   0.020201  -0.025313   0.014097   0.002890
     12      -0.063446  -0.010040  -0.029183   0.026259   0.004400  -0.000664
     13       0.117241   0.007569   0.052845   0.000960  -0.001411   0.001280
     14       0.004197  -0.026927  -0.011426  -0.017975   0.009568  -0.009359
     15       0.118981  -0.078718   0.028857   0.022910   0.068891  -0.039547
     16      -0.015929   0.032552  -0.033518  -0.003870   0.004258   0.007646
     17       0.003217   0.015972   0.049303   0.052027   0.015688   0.029371
     18       0.000739  -0.030036   0.045817  -0.024951  -0.161081   0.013635
     19      -0.228459  -0.100567   0.025744  -0.015081   0.071048   0.074804
     20      -0.001943   0.070575  -0.048338   0.043055  -0.138618  -0.633298
     21       0.071613  -0.002951  -0.037035  -0.013774  -0.151724   0.080328
     22       0.208277  -0.078851   0.025781   0.005264  -0.045177  -0.104799
     23       0.066499  -0.099920   0.062691   0.051579   0.264536   0.588311
     24       0.105570   0.081710   0.031461  -0.080300   0.049974   0.108479
     25      -0.301800   0.449463  -0.110811   0.148302   0.440868   0.056205
     26      -0.004847  -0.013362   0.012693  -0.026352  -0.033835   0.063625
     27       0.113012   0.012914  -0.124568   0.106076  -0.041248  -0.078098
     28      -0.203614   0.472137   0.043699  -0.008821   0.418458  -0.281773
     29       0.007717   0.033513   0.003914   0.018278   0.047565   0.009074
     30       0.173715   0.032024   0.078375  -0.401482   0.070324  -0.035376
     31       0.122893  -0.158927  -0.403149   0.518290  -0.177690   0.042852
     32      -0.043504  -0.001255  -0.050727   0.119159  -0.020843   0.013614
     33      -0.056884   0.029176   0.314130   0.106335   0.022790  -0.019803
     34      -0.362946   0.008999  -0.298369  -0.056832  -0.046812   0.043482
     35       0.208194  -0.032480  -0.207774  -0.188476   0.022310  -0.009042
     36       0.027164  -0.018702  -0.369813   0.217740   0.038900   0.011156
     37       0.249081   0.011685  -0.210412   0.123269   0.035141   0.011675
     38       0.306070   0.023502   0.075342  -0.190590   0.045004  -0.000579
     39       0.129346  -0.117662  -0.336103  -0.490287   0.128943  -0.019483
     40      -0.155586  -0.155759  -0.430712  -0.274930   0.128318  -0.041982
     41      -0.087738  -0.048376  -0.078277  -0.007710   0.023517  -0.016839
     42       0.220856   0.066708  -0.089193  -0.109722  -0.131815  -0.009542
     43       0.260294   0.423959  -0.101388  -0.093256  -0.253931   0.305952
     44       0.097724   0.155135  -0.056623  -0.064871  -0.165021   0.065005
     45       0.159768   0.149508   0.154911   0.065527  -0.150360   0.080138
     46       0.126401   0.434175  -0.000364  -0.059013  -0.477630  -0.013175
     47       0.058627   0.116479   0.011178   0.006074  -0.132069  -0.034595
                 24         25         26         27         28         29    
      0      -0.014557  -0.058095   0.025946   0.011241   0.022668  -0.007085
      1       0.035460  -0.084053   0.020473   0.043858  -0.091657  -0.003938
      2       0.004550  -0.047934  -0.075424  -0.111219  -0.001506  -0.001987
      3      -0.025619   0.027752   0.020406   0.002083   0.051301   0.005278
      4      -0.028446  -0.109522   0.001655   0.009235   0.075201  -0.006332
      5      -0.006993   0.010415  -0.083626   0.118118   0.021292   0.000315
      6       0.028291   0.090735  -0.032898  -0.017510  -0.074370  -0.002095
      7       0.003668   0.120896  -0.017594  -0.014977  -0.134777   0.018226
      8       0.004420   0.009309   0.066582  -0.073002  -0.024428  -0.002050
      9       0.011446   0.025830  -0.000147  -0.022276   0.019498  -0.116149
     10      -0.099416   0.017200  -0.002590  -0.003540  -0.022788   0.044973
     11      -0.024212  -0.047395   0.008338   0.020014  -0.003306  -0.048526
     12       0.044703  -0.021165   0.001115   0.021970   0.025575   0.121685
     13       0.092127   0.009341  -0.000423  -0.003022   0.014837  -0.013127
     14       0.007601   0.052246   0.006190  -0.021008   0.003200   0.053695
     15       0.025392  -0.049656  -0.027686   0.002777  -0.025302   0.007790
     16      -0.013524   0.141423   0.000020  -0.036918   0.152633   0.015165
     17       0.001876   0.038766   0.066383   0.066108   0.018393   0.007568
     18      -0.070432  -0.261433   0.090904   0.106745   0.395106  -0.070979
     19       0.074052   0.034207  -0.067121  -0.065667  -0.353169   0.041308
     20       0.006114   0.134516   0.205035   0.176389  -0.089628   0.002110
     21      -0.089314   0.277937   0.073571  -0.094263   0.498944   0.081280
     22      -0.046661  -0.018636  -0.030989   0.028843   0.215767   0.014950
     23      -0.002470  -0.108009   0.222952  -0.180190  -0.002470   0.006311
[...]
     31      -0.140578   0.047750  -0.014878  -0.184359   0.024851   0.002289
     32       0.224810  -0.034914  -0.001277   0.014053  -0.002192   0.003660
     33      -0.023736   0.008877   0.007205  -0.124097   0.012126  -0.026455
     34      -0.138636   0.049262  -0.020810  -0.108408   0.030638   0.047301
     35       0.096986  -0.050534   0.006965   0.478547  -0.052039   0.026401
     36      -0.016606   0.005448   0.013303  -0.106421   0.024073  -0.042263
     37      -0.100567   0.031548   0.014352  -0.007631   0.016689  -0.042287
     38      -0.137718   0.064040   0.012443   0.496844  -0.076167   0.013502
     39       0.423965  -0.073258  -0.008298  -0.356302   0.066099  -0.026877
     40      -0.213690   0.062497   0.018114   0.305503  -0.048813   0.006967
     41      -0.282763   0.053047   0.004034   0.094482  -0.013744   0.004567
     42      -0.087220   0.102122   0.263407  -0.042052  -0.273645   0.140620
     43      -0.137290   0.046210  -0.265738   0.054018   0.306433  -0.187980
     44      -0.055310   0.094336   0.228335  -0.042779  -0.274722   0.200361
     45       0.006230   0.133810   0.331513  -0.047024  -0.369401   0.223832
     46       0.036775  -0.009112  -0.126291   0.033343   0.136289  -0.065256
     47       0.018574  -0.050074  -0.222116   0.048323   0.275000  -0.200670
                 36         37         38         39         40         41    
      0      -0.003195  -0.550728  -0.034335   0.038908   0.000564  -0.001811
      1       0.000008   0.180600  -0.045216   0.041928   0.000850   0.001445
      2      -0.000389   0.043492  -0.006236   0.005503   0.000125   0.000179
      3       0.002656   0.581029  -0.017810  -0.022447   0.000601   0.002704
      4      -0.001421  -0.004777   0.054736   0.050838  -0.001800  -0.012397
      5       0.000241  -0.015891   0.008919   0.008536  -0.000297  -0.002081
      6      -0.000421  -0.085869   0.004566   0.018398   0.004438   0.052863
      7       0.005076  -0.034433   0.001051   0.000661   0.000759   0.001524
      8      -0.001816  -0.004377   0.000327   0.003453   0.001647   0.012649
      9      -0.111733   0.014781   0.000445   0.000215   0.036378  -0.004613
     10      -0.018631  -0.002872  -0.000230  -0.000163   0.025056  -0.003333
     11       0.075130  -0.005471  -0.000256  -0.000455  -0.015230   0.001710
     12       0.103013  -0.015152   0.000534  -0.000310   0.025332  -0.002296
     13      -0.029566   0.000416   0.000099  -0.000177  -0.027913   0.002849
     14      -0.082658   0.005007  -0.000190   0.000405  -0.022022   0.002047
     15       0.002136   0.069670   0.003821  -0.016081   0.002819   0.032345
     16       0.003587  -0.060094  -0.002394   0.007097  -0.002150  -0.014570
     17       0.003257  -0.010597  -0.000442  -0.001455   0.000794   0.004857
     18       0.005228   0.024452   0.412913  -0.386733  -0.006021   0.003216
     19      -0.006323  -0.326135   0.553033  -0.516052  -0.007623   0.000491
     20       0.000014  -0.050575   0.076510  -0.072113  -0.000708   0.001111
     21      -0.005805  -0.131613   0.209326   0.188838  -0.005958  -0.037790
     22      -0.003721  -0.299506  -0.666825  -0.597756   0.018157   0.128137
     23      -0.001937  -0.049244  -0.108448  -0.096494   0.003198   0.022048
     24       0.036260  -0.118053  -0.032917  -0.123897  -0.030957  -0.332548
     25      -0.033612  -0.109517   0.000024  -0.000303   0.001120  -0.003091
     26       0.026571  -0.025383   0.043642   0.158051   0.038204   0.412569
     27       0.029259  -0.094834  -0.021129  -0.096160  -0.027295  -0.276159
     28      -0.007944  -0.070606   0.001413   0.002665  -0.000585   0.003039
     29      -0.017080  -0.000339  -0.046232  -0.199396  -0.055582  -0.561471
     30       0.476344   0.000279   0.000783   0.000748   0.071971  -0.008466
     31       0.182932   0.003131  -0.000235  -0.000616  -0.051933   0.006322
     32       0.009713  -0.003880   0.005130   0.007750   0.392580  -0.045362
     33       0.053620  -0.014815  -0.005420  -0.003568  -0.499849   0.058022
     34       0.092268   0.056264  -0.002176  -0.002919  -0.257205   0.026825
     35      -0.458083  -0.004003  -0.002079  -0.001930  -0.214710   0.024629
     36      -0.045000   0.031843  -0.004631   0.002709  -0.354722   0.031765
     37      -0.042422   0.043692   0.004752  -0.004763   0.434020  -0.036088
     38       0.462173   0.020703  -0.001055   0.000832  -0.091795   0.008669
     39      -0.385197   0.000399   0.000551  -0.000554   0.059018  -0.005235
     40       0.318687   0.002150  -0.001723   0.002181  -0.092476   0.007856
     41       0.072169   0.004756   0.004893  -0.007822   0.355848  -0.031725
     42      -0.043268   0.076486  -0.033955   0.124674  -0.025456  -0.233458
     43      -0.009479  -0.145227  -0.002404   0.006933  -0.002081  -0.009701
     44      -0.034456  -0.013422   0.042505  -0.151217   0.029262   0.277158
     45      -0.031564   0.062230  -0.015776   0.071331  -0.016403  -0.142973
     46      -0.002482  -0.093688   0.018257  -0.083133   0.020552   0.167931
     47       0.015210  -0.023538  -0.040154   0.171856  -0.039448  -0.338318
                 42         43         44         45         46         47    
      0      -0.017319   0.001617   0.000089  -0.000554   0.000172   0.000078
      1      -0.020236   0.001811   0.000366  -0.001248  -0.000005  -0.000074
      2      -0.002794   0.000231  -0.000085  -0.000264   0.000044   0.000139
      3       0.009441  -0.000880   0.000021   0.000041  -0.000149   0.000110
      4      -0.021426   0.002113  -0.001272  -0.000622   0.000073  -0.000004
      5      -0.003463   0.000373  -0.000223   0.000054  -0.000013   0.000153
      6       0.030792  -0.002135   0.015821   0.005888  -0.000780  -0.000540
      7       0.001084   0.000306   0.000708   0.000300  -0.000148   0.000143
      8       0.007667  -0.000288  -0.090402  -0.033516   0.003922   0.000567
      9      -0.002185  -0.037082   0.001312   0.001705   0.036087   0.032911
     10      -0.001349  -0.024397   0.000206   0.000312   0.007830   0.005830
     11       0.000681   0.017218   0.003103   0.003795   0.063051   0.055953
     12       0.002289   0.029895  -0.000233  -0.001480  -0.024727   0.028858
     13      -0.002535  -0.030696   0.000335   0.002384   0.034180  -0.037267
     14      -0.001702  -0.026998  -0.000501  -0.004194  -0.049733   0.055715
     15      -0.046945   0.002081   0.007273  -0.019394   0.000848  -0.000609
     16       0.021646  -0.000531   0.008487  -0.022496   0.000867  -0.000149
     17      -0.007451   0.000195  -0.032558   0.086804  -0.003916   0.000632
     18       0.169903  -0.015177  -0.002216   0.007801  -0.001744   0.000610
     19       0.229249  -0.020586  -0.003078   0.011074  -0.002885   0.001031
     20       0.030920  -0.003021  -0.001657   0.000669  -0.000088   0.000788
     21      -0.075210   0.007048  -0.003309  -0.001455   0.000745   0.000125
     22       0.239292  -0.023133   0.011696   0.004707  -0.003411  -0.000997
     23       0.039163  -0.003616   0.001802   0.002284  -0.000830   0.000541
     24      -0.192151   0.018118  -0.462160  -0.171752   0.021256   0.005853
     25      -0.002556  -0.002453  -0.000765   0.000438  -0.001263  -0.001092
     26       0.237176  -0.020598   0.542320   0.201564  -0.023772  -0.006857
     27      -0.161407   0.011852   0.279491   0.104219  -0.014678  -0.004347
     28       0.000970  -0.000912  -0.005075  -0.002712   0.002370   0.003287
     29      -0.326765   0.022733   0.531289   0.197886  -0.027898  -0.005916
     30      -0.003851  -0.066506  -0.002558  -0.004244  -0.097477  -0.086510
     31       0.002295   0.053293   0.000207   0.004189   0.092488   0.083399
     32      -0.018254  -0.376455  -0.023327  -0.033208  -0.599868  -0.542838
     33       0.025935   0.466560  -0.014424  -0.013376  -0.344761  -0.301334
     34       0.011977   0.237441  -0.006680  -0.006948  -0.180964  -0.157026
     35       0.010573   0.199505  -0.005698  -0.005663  -0.139043  -0.120885
     36      -0.028094  -0.377918  -0.000653   0.013839   0.228380  -0.251009
     37       0.030866   0.458376   0.000083  -0.016088  -0.280510   0.306394
     38      -0.007228  -0.097577   0.000021   0.003304   0.050672  -0.055335
     39       0.004692   0.063204   0.001521   0.003004   0.080597  -0.089532
     40      -0.006770  -0.096956  -0.000306  -0.010865  -0.122455   0.138584
     41       0.025518   0.390298   0.007615   0.036365   0.531547  -0.603104
     42       0.336658  -0.020018  -0.172543   0.461574  -0.021596   0.006979
     43       0.012309  -0.002596  -0.004033   0.012455  -0.001206   0.001236
     44      -0.398775   0.020187   0.194498  -0.519081   0.022534  -0.006928
     45       0.208639  -0.009671   0.087500  -0.235234   0.012827  -0.005416
     46      -0.245758   0.009925  -0.097274   0.258375  -0.012126   0.000777
     47       0.491826  -0.021022   0.190957  -0.511820   0.027609  -0.007821


-----------
IR SPECTRUM
-----------

 Mode   freq       eps      Int      T**2         TX        TY        TZ
       cm**-1   L/(mol*cm) km/mol    a.u.
----------------------------------------------------------------------------
  9:     80.56   0.000001    0.01  0.000004  (-0.000353 -0.001927 -0.000707)
 10:    289.53   0.000054    0.27  0.000058  ( 0.000550  0.007577  0.000209)
 11:    299.27   0.000609    3.08  0.000635  ( 0.013727 -0.005411  0.020434)
 12:    433.25   0.000016    0.08  0.000011  ( 0.000911  0.003218 -0.000533)
 13:    511.06   0.005414   27.36  0.003306  (-0.002335 -0.008806  0.056768)
 14:    578.19   0.000792    4.00  0.000427  ( 0.003814 -0.003771  0.019965)
 15:    623.52   0.000192    0.97  0.000096  (-0.002141 -0.009525 -0.001016)
 16:    681.97   0.000669    3.38  0.000306  (-0.017239  0.002813 -0.000952)
 17:    780.74   0.000012    0.06  0.000005  ( 0.001327  0.001423  0.001024)
 18:    807.33   0.001177    5.95  0.000455  ( 0.016532 -0.005320  0.012388)
 19:    903.17   0.000048    0.24  0.000017  ( 0.000567  0.003975  0.000785)
 20:    916.84   0.000819    4.14  0.000279  (-0.002577 -0.016318 -0.002420)
 21:    920.91   0.000115    0.58  0.000039  ( 0.002454  0.000772  0.005701)
 22:    951.63   0.000475    2.40  0.000156  (-0.011856  0.001656  0.003507)
 23:    955.37   0.000053    0.27  0.000017  ( 0.003944  0.000849 -0.000973)
 24:   1003.24   0.000027    0.14  0.000008  ( 0.000387 -0.000430  0.002831)
 25:   1038.89   0.000132    0.67  0.000040  ( 0.000947  0.005968  0.001773)
 26:   1054.65   0.001785    9.02  0.000528  (-0.004359 -0.003127  0.022344)
 27:   1057.17   0.000049    0.25  0.000014  ( 0.000753  0.003637  0.000794)
 28:   1127.33   0.002361   11.93  0.000654  ( 0.025187 -0.004364  0.000420)
 29:   1161.41   0.001481    7.48  0.000398  ( 0.003171  0.019454  0.003075)
 30:   1206.05   0.000001    0.00  0.000000  (-0.000225 -0.000255 -0.000187)
 31:   1239.99   0.001793    9.06  0.000451  (-0.003791 -0.020632 -0.003361)
 32:   1373.53   0.000814    4.11  0.000185  ( 0.011830 -0.002894  0.006051)
 33:   1393.37   0.000584    2.95  0.000131  ( 0.003231 -0.002364  0.010710)
 34:   1393.86   0.000016    0.08  0.000003  (-0.000473  0.000780 -0.001626)
 35:   1428.02   0.000130    0.66  0.000028  ( 0.005211 -0.001095  0.000044)
 36:   1447.30   0.000021    0.10  0.000004  ( 0.000432  0.002036  0.000380)
 37:   1814.40   0.001333    6.74  0.000229  ( 0.002623  0.014737  0.002282)
 38:   3222.55   0.000330    1.67  0.000032  (-0.005496  0.001304 -0.000230)
 39:   3242.49   0.005230   26.43  0.000503  ( 0.004005  0.021795  0.003498)
 40:   3254.07   0.004801   24.26  0.000460  ( 0.018533 -0.000869 -0.010780)
 41:   3256.08   0.005180   26.18  0.000496  ( 0.020897 -0.006942  0.003401)
 42:   3258.59   0.001413    7.14  0.000135  (-0.006772 -0.009204 -0.002168)
 43:   3262.29   0.004512   22.80  0.000432  (-0.002965 -0.020231 -0.003675)
 44:   3354.02   0.001449    7.32  0.000135  ( 0.002210  0.000665 -0.011380)
 45:   3354.77   0.000333    1.68  0.000031  (-0.001290 -0.002432  0.004833)
 46:   3363.66   0.000179    0.90  0.000017  ( 0.001075  0.003698  0.001328)
 47:   3377.80   0.002076   10.49  0.000192  ( 0.005388 -0.003028  0.012392)

* The epsilon (eps) is given for a Dirac delta lineshape.
** The dipole moment derivative (T) already includes vibrational overlap.

The first frequency considered to be a vibration is 9
The total number of vibrations considered is 39


--------------------------
THERMOCHEMISTRY AT 298.15K
--------------------------

Temperature         ... 298.15 K
Pressure            ... 1.00 atm
Total Mass          ... 82.15 AMU

Throughout the following assumptions are being made:
  (1) The electronic state is orbitally nondegenerate
  (2) There are no thermally accessible electronically excited states
  (3) Hindered rotations indicated by low frequency modes are not
      treated as such but are treated as vibrations and this may
      cause some error
  (4) All equations used are the standard statistical mechanics
      equations for an ideal gas
  (5) All vibrations are strictly harmonic

freq.      80.56  E(vib)   ...       0.48 
freq.     289.53  E(vib)   ...       0.27 
freq.     299.27  E(vib)   ...       0.26 
freq.     433.25  E(vib)   ...       0.17 
freq.     511.06  E(vib)   ...       0.14 
freq.     578.19  E(vib)   ...       0.11 
freq.     623.52  E(vib)   ...       0.09 
freq.     681.97  E(vib)   ...       0.08 
freq.     780.74  E(vib)   ...       0.05 
freq.     807.33  E(vib)   ...       0.05 
freq.     903.17  E(vib)   ...       0.03 
freq.     916.84  E(vib)   ...       0.03 
freq.     920.91  E(vib)   ...       0.03 
freq.     951.63  E(vib)   ...       0.03 
freq.     955.37  E(vib)   ...       0.03 
freq.    1003.24  E(vib)   ...       0.02 
freq.    1038.89  E(vib)   ...       0.02 
freq.    1054.65  E(vib)   ...       0.02 
freq.    1057.17  E(vib)   ...       0.02 
freq.    1127.33  E(vib)   ...       0.01 
freq.    1161.41  E(vib)   ...       0.01 
freq.    1206.05  E(vib)   ...       0.01 
freq.    1239.99  E(vib)   ...       0.01 
freq.    1373.53  E(vib)   ...       0.01 
freq.    1393.37  E(vib)   ...       0.00 
freq.    1393.86  E(vib)   ...       0.00 
freq.    1428.02  E(vib)   ...       0.00 
freq.    1447.30  E(vib)   ...       0.00 
freq.    1814.40  E(vib)   ...       0.00 
freq.    3222.55  E(vib)   ...       0.00 
freq.    3242.49  E(vib)   ...       0.00 
freq.    3254.07  E(vib)   ...       0.00 
freq.    3256.08  E(vib)   ...       0.00 
freq.    3258.59  E(vib)   ...       0.00 
freq.    3262.29  E(vib)   ...       0.00 
freq.    3354.02  E(vib)   ...       0.00 
freq.    3354.77  E(vib)   ...       0.00 
freq.    3363.66  E(vib)   ...       0.00 
freq.    3377.80  E(vib)   ...       0.00 

------------
INNER ENERGY
------------

The inner energy is: U= E(el) + E(ZPE) + E(vib) + E(rot) + E(trans)
    E(el)   - is the total energy from the electronic structure calculation
              = E(kin-el) + E(nuc-el) + E(el-el) + E(nuc-nuc)
    E(ZPE)  - the the zero temperature vibrational energy from the frequency calculation
    E(vib)  - the the finite temperature correction to E(ZPE) due to population
              of excited vibrational states
    E(rot)  - is the rotational thermal energy
    E(trans)- is the translational thermal energy

Summary of contributions to the inner energy U:
Electronic energy                ...   -234.06841380 Eh
Zero point energy                ...      0.13764429 Eh      86.37 kcal/mol
Thermal vibrational correction   ...      0.00320160 Eh       2.01 kcal/mol
Thermal rotational correction    ...      0.00141627 Eh       0.89 kcal/mol
Thermal translational correction ...      0.00141627 Eh       0.89 kcal/mol
-----------------------------------------------------------------------
Total thermal energy                   -233.92473537 Eh


Summary of corrections to the electronic energy:
(perhaps to be used in another calculation)
Total thermal correction                  0.00603414 Eh       3.79 kcal/mol
Non-thermal (ZPE) correction              0.13764429 Eh      86.37 kcal/mol
-----------------------------------------------------------------------
Total correction                          0.14367843 Eh      90.16 kcal/mol


--------
ENTHALPY
--------

The enthalpy is H = U + kB*T
                kB is Boltzmann's constant
Total free energy                 ...   -233.92473537 Eh 
Thermal Enthalpy correction       ...      0.00094421 Eh       0.59 kcal/mol
-----------------------------------------------------------------------
Total Enthalpy                    ...   -233.92379116 Eh


Note: Only C1 symmetry has been detected, increase convergence thresholds 
      if your molecule has a higher symmetry. Symmetry factor of 1.0 is   
      used for the rotational entropy correction. 
 

Note: Rotational entropy computed according to Herzberg 
Infrared and Raman Spectra, Chapter V,1, Van Nostrand Reinhold, 1945 
Point Group:  C1, Symmetry Number:   1  
Rotational constants in cm-1:     0.142213     0.117710     0.070330 

Vibrational entropy computed according to the QRRHO of S. Grimme
Chem.Eur.J. 2012 18 9955


-------
ENTROPY
-------

The entropy contributions are T*S = T*(S(el)+S(vib)+S(rot)+S(trans))
     S(el)   - electronic entropy
     S(vib)  - vibrational entropy
     S(rot)  - rotational entropy
     S(trans)- translational entropy
The entropies will be listed as multiplied by the temperature to get
units of energy

Electronic entropy                ...      0.00000000 Eh      0.00 kcal/mol
Vibrational entropy               ...      0.00502067 Eh      3.15 kcal/mol
Rotational entropy                ...      0.01269484 Eh      7.97 kcal/mol
Translational entropy             ...      0.01859270 Eh     11.67 kcal/mol
-----------------------------------------------------------------------
Final entropy term                ...      0.03630821 Eh     22.78 kcal/mol

In case the symmetry of your molecule has not been determined correctly
or in case you have a reason to use a different symmetry number we print 
out the resulting rotational entropy values for sn=1,12 :
 --------------------------------------------------------
|  sn= 1 | S(rot)=       0.01269484 Eh      7.97 kcal/mol|
|  sn= 2 | S(rot)=       0.01204038 Eh      7.56 kcal/mol|
|  sn= 3 | S(rot)=       0.01165755 Eh      7.32 kcal/mol|
|  sn= 4 | S(rot)=       0.01138593 Eh      7.14 kcal/mol|
|  sn= 5 | S(rot)=       0.01117524 Eh      7.01 kcal/mol|
|  sn= 6 | S(rot)=       0.01100309 Eh      6.90 kcal/mol|
|  sn= 7 | S(rot)=       0.01085755 Eh      6.81 kcal/mol|
|  sn= 8 | S(rot)=       0.01073147 Eh      6.73 kcal/mol|
|  sn= 9 | S(rot)=       0.01062026 Eh      6.66 kcal/mol|
|  sn=10 | S(rot)=       0.01052078 Eh      6.60 kcal/mol|
|  sn=11 | S(rot)=       0.01043079 Eh      6.55 kcal/mol|
|  sn=12 | S(rot)=       0.01034864 Eh      6.49 kcal/mol|
 --------------------------------------------------------


-------------------
GIBBS FREE ENERGY
-------------------

The Gibbs free energy is G = H - T*S

Total enthalpy                    ...   -233.92379116 Eh 
Total entropy correction          ...     -0.03630821 Eh    -22.78 kcal/mol
-----------------------------------------------------------------------
Final Gibbs free energy         ...   -233.96009936 Eh

For completeness - the Gibbs free energy minus the electronic energy
G-E(el)                           ...      0.10831443 Eh     67.97 kcal/mol


Timings for individual modules:

Sum of individual times         ...      274.821 sec (=   4.580 min)
GTO integral calculation        ...        0.142 sec (=   0.002 min)   0.1 %
SCF iterations                  ...       32.679 sec (=   0.545 min)  11.9 %
Analytical frequency calculation...      242.001 sec (=   4.033 min)  88.1 %
                             ****ORCA TERMINATED NORMALLY****
TOTAL RUN TIME: 0 days 0 hours 4 minutes 35 seconds 18 msec
