
                                 *****************
                                 * O   R   C   A *
                                 *****************

                                            #,                                       
                                            ###                                      
                                            ####                                     
                                            #####                                    
                                            ######                                   
                                           ########,                                 
                                     ,,################,,,,,                         
                               ,,#################################,,                 
                          ,,##########################################,,             
                       ,#########################################, ''#####,          
                    ,#############################################,,   '####,        
                  ,##################################################,,,,####,       
                ,###########''''           ''''###############################       
              ,#####''   ,,,,##########,,,,          '''####'''          '####       
            ,##' ,,,,###########################,,,                        '##       
           ' ,,###''''                  '''############,,,                           
         ,,##''                                '''############,,,,        ,,,,,,###''
      ,#''                                            '''#######################'''  
     '                                                          ''''####''''         
             ,#######,   #######,   ,#######,      ##                                
            ,#'     '#,  ##    ##  ,#'     '#,    #''#        ######   ,####,        
            ##       ##  ##   ,#'  ##            #'  '#       #        #'  '#        
            ##       ##  #######   ##           ,######,      #####,   #    #        
            '#,     ,#'  ##    ##  '#,     ,#' ,#      #,         ##   #,  ,#        
             '#######'   ##     ##  '#######'  #'      '#     #####' # '####'        



                  #######################################################
                  #                        -***-                        #
                  #          Department of theory and spectroscopy      #
                  #    Directorship and core code : Frank Neese         #
                  #        Max Planck Institute fuer Kohlenforschung    #
                  #                Kaiser Wilhelm Platz 1               #
                  #                 D-45470 Muelheim/Ruhr               #
                  #                      Germany                        #
                  #                                                     #
                  #                  All rights reserved                #
                  #                        -***-                        #
                  #######################################################


                         Program Version 5.0.4 -  RELEASE  -


 With contributions from (in alphabetic order):
   Daniel Aravena         : Magnetic Suceptibility
   Michael Atanasov       : Ab Initio Ligand Field Theory (pilot matlab implementation)
   Alexander A. Auer      : GIAO ZORA, VPT2 properties, NMR spectrum
   Ute Becker             : Parallelization
   Giovanni Bistoni       : ED, misc. LED, open-shell LED, HFLD
   Martin Brehm           : Molecular dynamics
   Dmytro Bykov           : SCF Hessian
   Vijay G. Chilkuri      : MRCI spin determinant printing, contributions to CSF-ICE
   Dipayan Datta          : RHF DLPNO-CCSD density
   Achintya Kumar Dutta   : EOM-CC, STEOM-CC
   Dmitry Ganyushin       : Spin-Orbit,Spin-Spin,Magnetic field MRCI
   Miquel Garcia          : C-PCM and meta-GGA Hessian, CC/C-PCM, Gaussian charge scheme
   Yang Guo               : DLPNO-NEVPT2, F12-NEVPT2, CIM, IAO-localization
   Andreas Hansen         : Spin unrestricted coupled pair/coupled cluster methods
   Benjamin Helmich-Paris : MC-RPA, TRAH-SCF, COSX integrals
   Lee Huntington         : MR-EOM, pCC
   Robert Izsak           : Overlap fitted RIJCOSX, COSX-SCS-MP3, EOM
   Marcus Kettner         : VPT2
   Christian Kollmar      : KDIIS, OOCD, Brueckner-CCSD(T), CCSD density, CASPT2, CASPT2-K
   Simone Kossmann        : Meta GGA functionals, TD-DFT gradient, OOMP2, MP2 Hessian
   Martin Krupicka        : Initial AUTO-CI
   Lucas Lang             : DCDCAS
   Marvin Lechner         : AUTO-CI (C++ implementation), FIC-MRCC
   Dagmar Lenk            : GEPOL surface, SMD
   Dimitrios Liakos       : Extrapolation schemes; Compound Job, initial MDCI parallelization
   Dimitrios Manganas     : Further ROCIS development; embedding schemes
   Dimitrios Pantazis     : SARC Basis sets
   Anastasios Papadopoulos: AUTO-CI, single reference methods and gradients
   Taras Petrenko         : DFT Hessian,TD-DFT gradient, ASA, ECA, R-Raman, ABS, FL, XAS/XES, NRVS
   Peter Pinski           : DLPNO-MP2, DLPNO-MP2 Gradient
   Christoph Reimann      : Effective Core Potentials
   Marius Retegan         : Local ZFS, SOC
   Christoph Riplinger    : Optimizer, TS searches, QM/MM, DLPNO-CCSD(T), (RO)-DLPNO pert. Triples
   Tobias Risthaus        : Range-separated hybrids, TD-DFT gradient, RPA, STAB
   Michael Roemelt        : Original ROCIS implementation
   Masaaki Saitow         : Open-shell DLPNO-CCSD energy and density
   Barbara Sandhoefer     : DKH picture change effects
   Avijit Sen             : IP-ROCIS
   Kantharuban Sivalingam : CASSCF convergence, NEVPT2, FIC-MRCI
   Bernardo de Souza      : ESD, SOC TD-DFT
   Georgi Stoychev        : AutoAux, RI-MP2 NMR, DLPNO-MP2 response
   Willem Van den Heuvel  : Paramagnetic NMR
   Boris Wezisla          : Elementary symmetry handling
   Frank Wennmohs         : Technical directorship


 We gratefully acknowledge several colleagues who have allowed us to
 interface, adapt or use parts of their codes:
   Stefan Grimme, W. Hujo, H. Kruse, P. Pracht,  : VdW corrections, initial TS optimization,
                  C. Bannwarth, S. Ehlert          DFT functionals, gCP, sTDA/sTD-DF
   Ed Valeev, F. Pavosevic, A. Kumar             : LibInt (2-el integral package), F12 methods
   Garnet Chan, S. Sharma, J. Yang, R. Olivares  : DMRG
   Ulf Ekstrom                                   : XCFun DFT Library
   Mihaly Kallay                                 : mrcc  (arbitrary order and MRCC methods)
   Jiri Pittner, Ondrej Demel                    : Mk-CCSD
   Frank Weinhold                                : gennbo (NPA and NBO analysis)
   Christopher J. Cramer and Donald G. Truhlar   : smd solvation model
   Lars Goerigk                                  : TD-DFT with DH, B97 family of functionals
   V. Asgeirsson, H. Jonsson                     : NEB implementation
   FAccTs GmbH                                   : IRC, NEB, NEB-TS, DLPNO-Multilevel, CI-OPT
                                                   MM, QMMM, 2- and 3-layer-ONIOM, Crystal-QMMM,
                                                   LR-CPCM, SF, NACMEs, symmetry and pop. for TD-DFT,
                                                   nearIR, NL-DFT gradient (VV10), updates on ESD,
                                                   ML-optimized integration grids
   S Lehtola, MJT Oliveira, MAL Marques          : LibXC Library
   Liviu Ungur et al                             : ANISO software


 Your calculation uses the libint2 library for the computation of 2-el integrals
 For citations please refer to: http://libint.valeyev.net

 Your ORCA version has been built with support for libXC version: 5.1.0
 For citations please refer to: https://tddft.org/programs/libxc/

 This ORCA versions uses:
   CBLAS   interface :  Fast vector & matrix operations
   LAPACKE interface :  Fast linear algebra routines
   SCALAPACK package :  Parallel linear algebra routines
   Shared memory     :  Shared parallel matrices
   BLAS/LAPACK       :  OpenBLAS 0.3.15  USE64BITINT DYNAMIC_ARCH NO_AFFINITY Haswell SINGLE_THREADED
        Core in use  :  Haswell
   Copyright (c) 2011-2014, The OpenBLAS Project


Your calculation utilizes the atom-pairwise dispersion correction
with the Becke-Johnson damping scheme (D3BJ)
Cite in your paper:
S.Grimme, S.Ehrlich, L.Goerigk, J Comput Chem, (2011), 32, 1456–1465 
S.Grimme, J.Antony, S.Ehrlich and H.Krieg, J.Chem.Phys., 132, (2010), 154104 
   

================================================================================

----- Orbital basis set information -----
Your calculation utilizes the basis: def2-SVP
   F. Weigend and R. Ahlrichs, Phys. Chem. Chem. Phys. 7, 3297 (2005).

----- AuxJ basis set information -----
Your calculation utilizes the auxiliary basis: def2/J
   F. Weigend, Phys. Chem. Chem. Phys. 8, 1057 (2006).

================================================================================
                                        WARNINGS
                       Please study these warnings very carefully!
================================================================================


WARNING: Geometry Optimization
  ===> : Switching off AutoStart
         For restart on a previous wavefunction, please use MOREAD

INFO   : the flag for use of the SHARK integral package has been found!

================================================================================
                                       INPUT FILE
================================================================================
NAME = TS_5ZPuRE_ll_ad_2-3_4-5_optts_orca.inp
|  1> ! OptTS Freq PBE0 RIJCOSX D3BJ def2-SVP def2/J  
|  2> %geom
|  3> Calc_Hess true
|  4> Recalc_Hess 20
|  5> Trust -0.1
|  6> MaxIter 100
|  7> end
|  8> %geom
|  9> modify_internal
| 10> { B 2 3 A } end
| 11> end
| 12> %geom
| 13> modify_internal
| 14> { B 4 5 A } end
| 15> end
| 16> %output 
| 17> xyzfile=True 
| 18> end 
| 19> %scf 
| 20> maxiter 250 
| 21> end
| 22> %output
| 23> Print[P_Hirshfeld] = 1
| 24> end
| 25> % maxcore
| 26> 4000
| 27> *xyz 0 1
| 28> C   -0.90753937  -1.36551530  -0.20013780 
| 29> C    0.40018334  -1.57935780  -0.27054968 
| 30> C    1.51051799  -0.63024290  -0.13962703 
| 31> C    0.82611119   1.36423301  -0.20262756 
| 32> C   -0.34725670   1.42470774   0.65999901 
| 33> C   -1.63814496  -0.11142796   0.00854072 
| 34> H   -1.56321004  -2.22542572  -0.31997668 
| 35> H    0.73268682  -2.60204048  -0.43597677 
| 36> H    2.20625781  -0.63521032  -0.96730685 
| 37> H    2.00418506  -0.64778674   0.82357599 
| 38> H    0.65187621   1.52951543  -1.25529875 
| 39> H    1.72397916   1.84016526   0.17031030 
| 40> H   -1.01863760   2.25889399   0.50153804 
| 41> H   -0.18585637   1.18709515   1.70058876 
| 42> H   -2.35285007  -0.13887504   0.81970496 
| 43> H   -2.04224248   0.33118168  -0.89251665 
| 44> *
| 45> 
| 46>                          ****END OF INPUT****
================================================================================

                       *****************************
                       * Geometry Optimization Run *
                       *****************************

Geometry optimization settings:
Update method            Update   .... Bofill
Choice of coordinates    CoordSys .... Z-matrix Internals
Initial Hessian          InHess   .... Almoef's Model

Convergence Tolerances:
Energy Change            TolE     ....  5.0000e-06 Eh
Max. Gradient            TolMAXG  ....  3.0000e-04 Eh/bohr
RMS Gradient             TolRMSG  ....  1.0000e-04 Eh/bohr
Max. Displacement        TolMAXD  ....  4.0000e-03 bohr
RMS Displacement         TolRMSD  ....  2.0000e-03 bohr
Strict Convergence                ....  False
------------------------------------------------------------------------------
                        ORCA OPTIMIZATION COORDINATE SETUP
------------------------------------------------------------------------------

The optimization will be done in new redundant internal coordinates
Making redundant internal coordinates   ...  (new redundants) Bond   3,  2 is already included
Bond   5,  4 is already included
done
Following TS mode number                ...     0
Evaluating the initial hessian          ...  (Is done on the fly) done
Evaluating the coordinates              ...  done
Calculating the B-matrix                .... done
Calculating the G-matrix                .... done
Diagonalizing the G-matrix              .... done
The first mode is                       ....   59
The number of degrees of freedom        ....   42

    -----------------------------------------------------------------
                    Redundant Internal Coordinates


    -----------------------------------------------------------------
         Definition                    Initial Value    d2E/dq (diagonal element)
    -----------------------------------------------------------------
      1. B(C   1,C   0)                  1.3270         0.000000   
      2. B(C   2,C   1)                  1.4666         0.000000   
      3. B(C   3,C   2)                  2.1096         0.000000   
      4. B(C   4,C   3)                  1.4576         0.000000   
      5. B(C   5,C   0)                  1.4663         0.000000   
      6. B(C   5,C   4)                  2.1096         0.000000   
      7. B(H   6,C   0)                  1.0880         0.000000   
      8. B(H   7,C   1)                  1.0880         0.000000   
      9. B(H   8,C   2)                  1.0813         0.000000   
     10. B(H   8,C   3)                  2.5470         0.000000   
     11. B(H   9,C   2)                  1.0825         0.000000   
     12. B(H   9,C   3)                  2.5474         0.000000   
     13. B(H  10,H   8)                  2.6805         0.000000   
     14. B(H  10,C   3)                  1.0797         0.000000   
     15. B(H  10,C   2)                  2.5781         0.000000   
     16. B(H  11,H   9)                  2.5875         0.000000   
     17. B(H  11,C   3)                  1.0825         0.000000   
     18. B(H  11,C   2)                  2.4989         0.000000   
     19. B(H  12,C   4)                  1.0825         0.000000   
     20. B(H  12,C   5)                  2.4991         0.000000   
     21. B(H  13,C   4)                  1.0795         0.000000   
     22. B(H  13,C   5)                  2.5804         0.000000   
     23. B(H  14,H  13)                  2.6889         0.000000   
     24. B(H  14,C   4)                  2.5481         0.000000   
     25. B(H  14,C   5)                  1.0815         0.000000   
     26. B(H  15,H  12)                  2.5898         0.000000   
     27. B(H  15,C   5)                  1.0822         0.000000   
     28. B(H  15,C   4)                  2.5454         0.000000   
     29. A(C   5,C   0,H   6)          113.0402         0.000000   
     30. A(C   1,C   0,H   6)          117.4320         0.000000   
     31. A(C   1,C   0,C   5)          129.5252         0.000000   
     32. A(C   0,C   1,H   7)          117.4331         0.000000   
     33. A(C   2,C   1,H   7)          112.9859         0.000000   
     34. A(C   0,C   1,C   2)          129.5755         0.000000   
     35. A(C   3,C   2,H   8)          100.9666         0.000000   
     36. A(C   1,C   2,H   8)          114.5727         0.000000   
     37. A(C   3,C   2,H   9)          100.9441         0.000000   
     38. A(C   1,C   2,C   3)          111.3195         0.000000   
     39. A(H   8,C   2,H   9)          112.8055         0.000000   
     40. A(C   1,C   2,H   9)          114.4703         0.000000   
     41. A(C   2,C   3,H  11)           97.8333         0.000000   
     42. A(C   2,C   3,H  10)          103.0732         0.000000   
     43. A(C   4,C   3,H  11)          116.4604         0.000000   
     44. A(C   2,C   3,C   4)          106.4225         0.000000   
     45. A(C   4,C   3,H  10)          116.1508         0.000000   
     46. A(H  10,C   3,H  11)          113.7306         0.000000   
     47. A(C   5,C   4,H  13)          103.2313         0.000000   
     48. A(C   5,C   4,H  12)           97.8404         0.000000   
     49. A(C   3,C   4,H  12)          116.3996         0.000000   
     50. A(C   3,C   4,C   5)          106.2376         0.000000   
     51. A(H  12,C   4,H  13)          113.7953         0.000000   
     52. A(C   3,C   4,H  13)          116.1670         0.000000   
     53. A(C   4,C   5,H  15)          100.8243         0.000000   
     54. A(C   4,C   5,H  14)          101.0257         0.000000   
     55. A(C   0,C   5,C   4)          111.2125         0.000000   
     56. A(H  14,C   5,H  15)          112.8385         0.000000   
     57. A(C   0,C   5,H  15)          114.6683         0.000000   
     58. A(C   0,C   5,H  14)          114.4770         0.000000   
     59. D(C   2,C   1,C   0,C   5)      1.1002         0.000000   
     60. D(H   7,C   1,C   0,C   5)   -179.8238         0.000000   
     61. D(C   2,C   1,C   0,H   6)   -179.5333         0.000000   
     62. D(H   7,C   1,C   0,H   6)     -0.4573         0.000000   
     63. D(C   3,C   2,C   1,H   7)    168.8063         0.000000   
     64. D(C   3,C   2,C   1,C   0)    -12.0844         0.000000   
     65. D(H   8,C   2,C   1,H   7)     55.0401         0.000000   
     66. D(H   8,C   2,C   1,C   0)   -125.8507         0.000000   
     67. D(H   9,C   2,C   1,C   0)    101.5891         0.000000   
     68. D(H   9,C   2,C   1,H   7)    -77.5201         0.000000   
     69. D(H  10,C   3,C   2,C   1)    -77.7601         0.000000   
     70. D(C   4,C   3,C   2,H   8)    166.9613         0.000000   
     71. D(C   4,C   3,C   2,C   1)     44.9338         0.000000   
     72. D(H  10,C   3,C   2,H   8)     44.2674         0.000000   
     73. D(C   4,C   3,C   2,H   9)    -76.9605         0.000000   
     74. D(H  11,C   3,C   2,H   9)     43.6671         0.000000   
     75. D(H  11,C   3,C   2,H   8)    -72.4111         0.000000   
     76. D(H  11,C   3,C   2,C   1)    165.5614         0.000000   
     77. D(H  10,C   3,C   2,H   9)    160.3456         0.000000   
     78. D(C   5,C   4,C   3,C   2)    -52.5700         0.000000   
     79. D(C   5,C   4,C   3,H  10)     61.4732         0.000000   
     80. D(H  13,C   4,C   3,C   2)     61.5540         0.000000   
     81. D(H  13,C   4,C   3,H  11)    -46.2292         0.000000   
     82. D(H  13,C   4,C   3,H  10)    175.5972         0.000000   
     83. D(H  12,C   4,C   3,C   2)   -160.2195         0.000000   
     84. D(C   5,C   4,C   3,H  11)   -160.3531         0.000000   
     85. D(H  12,C   4,C   3,H  10)    -46.1763         0.000000   
     86. D(H  12,C   4,C   3,H  11)     91.9973         0.000000   
     87. D(H  15,C   5,C   0,C   1)    100.1985         0.000000   
     88. D(H  14,C   5,C   0,H   6)     53.5261         0.000000   
     89. D(H  14,C   5,C   0,C   1)   -127.0849         0.000000   
     90. D(H  15,C   5,C   4,H  12)     44.4757         0.000000   
     91. D(H  15,C   5,C   4,C   3)    -76.0268         0.000000   
     92. D(H  14,C   5,C   4,H  13)     45.1738         0.000000   
     93. D(H  14,C   5,C   4,H  12)    -71.6187         0.000000   
     94. D(H  14,C   5,C   4,C   3)    167.8788         0.000000   
     95. D(C   0,C   5,C   4,H  13)    -76.7251         0.000000   
     96. D(C   0,C   5,C   4,H  12)    166.4823         0.000000   
     97. D(C   0,C   5,C   4,C   3)     45.9798         0.000000   
     98. D(C   4,C   5,C   0,H   6)    167.2355         0.000000   
     99. D(C   4,C   5,C   0,C   1)    -13.3755         0.000000   
    100. D(H  15,C   5,C   4,H  13)    161.2682         0.000000   
    101. D(H  15,C   5,C   0,H   6)    -79.1905         0.000000   
    -----------------------------------------------------------------

Number of atoms                         .... 16
Number of degrees of freedom            .... 101

         *************************************************************
         *                GEOMETRY OPTIMIZATION CYCLE   1            *
         *************************************************************
---------------------------------
CARTESIAN COORDINATES (ANGSTROEM)
---------------------------------
  C     -0.907539   -1.365515   -0.200138
  C      0.400183   -1.579358   -0.270550
  C      1.510518   -0.630243   -0.139627
  C      0.826111    1.364233   -0.202628
  C     -0.347257    1.424708    0.659999
  C     -1.638145   -0.111428    0.008541
  H     -1.563210   -2.225426   -0.319977
  H      0.732687   -2.602040   -0.435977
  H      2.206258   -0.635210   -0.967307
  H      2.004185   -0.647787    0.823576
  H      0.651876    1.529515   -1.255299
  H      1.723979    1.840165    0.170310
  H     -1.018638    2.258894    0.501538
  H     -0.185856    1.187095    1.700589
  H     -2.352850   -0.138875    0.819705
  H     -2.042242    0.331182   -0.892517

----------------------------
CARTESIAN COORDINATES (A.U.)
----------------------------
  NO LB      ZA    FRAG     MASS         X           Y           Z
   0 C     6.0000    0    12.011   -1.715001   -2.580450   -0.378206
   1 C     6.0000    0    12.011    0.756237   -2.984554   -0.511265
   2 C     6.0000    0    12.011    2.854465   -1.190986   -0.263857
   3 C     6.0000    0    12.011    1.561124    2.578027   -0.382911
   4 C     6.0000    0    12.011   -0.656220    2.692307    1.247217
   5 C     6.0000    0    12.011   -3.095645   -0.210568    0.016140
   6 H     1.0000    0     1.008   -2.954039   -4.205445   -0.604668
   7 H     1.0000    0     1.008    1.384577   -4.917144   -0.823877
   8 H     1.0000    0     1.008    4.169223   -1.200374   -1.827945
   9 H     1.0000    0     1.008    3.787361   -1.224140    1.556333
  10 H     1.0000    0     1.008    1.231868    2.890365   -2.372171
  11 H     1.0000    0     1.008    3.257848    3.477408    0.321840
  12 H     1.0000    0     1.008   -1.924946    4.268691    0.947770
  13 H     1.0000    0     1.008   -0.351218    2.243285    3.213647
  14 H     1.0000    0     1.008   -4.446242   -0.262436    1.549018
  15 H     1.0000    0     1.008   -3.859279    0.625843   -1.686612

--------------------------------
INTERNAL COORDINATES (ANGSTROEM)
--------------------------------
 C      0   0   0     0.000000000000     0.00000000     0.00000000
 C      1   0   0     1.326960863741     0.00000000     0.00000000
 C      2   1   0     1.466561580254   129.57549737     0.00000000
 C      3   2   1     2.109577182811   111.31952746   347.91557473
 C      4   3   2     1.457591848743   106.42249330    44.93380549
 C      1   2   3     1.466310440936   129.52517198     1.10015613
 H      1   2   3     1.087984979254   117.43198002   180.46666106
 H      2   1   3     1.088027826064   117.43310952   179.07608730
 H      3   2   1     1.081264286301   114.57274076   234.14934862
 H      3   2   1     1.082485574990   114.47029386   101.58913483
 H      4   3   2     1.079718824914   103.07322419   282.23992776
 H      4   3   2     1.082479120151    97.83334712   165.56142345
 H      5   4   3     1.082464268042   116.39959092   199.78047205
 H      5   4   3     1.079507682815   116.16703142    61.55395071
 H      6   1   2     1.081454650328   114.47697151   232.91511512
 H      6   1   2     1.082174885646   114.66830633   100.19854341

---------------------------
INTERNAL COORDINATES (A.U.)
---------------------------
 C      0   0   0     0.000000000000     0.00000000     0.00000000
 C      1   0   0     2.507592622903     0.00000000     0.00000000
 C      2   1   0     2.771399745210   129.57549737     0.00000000
 C      3   2   1     3.986523133882   111.31952746   347.91557473
 C      4   3   2     2.754449409160   106.42249330    44.93380549
 C      1   2   3     2.770925160678   129.52517198     1.10015613
 H      1   2   3     2.055993648610   117.43198002   180.46666106
 H      2   1   3     2.056074617347   117.43310952   179.07608730
 H      3   2   1     2.043293379499   114.57274076   234.14934862
 H      3   2   1     2.045601280651   114.47029386   101.58913483
 H      4   3   2     2.040372880726   103.07322419   282.23992776
 H      4   3   2     2.045589082774    97.83334712   165.56142345
 H      5   4   3     2.045561016354   116.39959092   199.78047205
 H      5   4   3     2.039973879983   116.16703142    61.55395071
 H      6   1   2     2.043653115375   114.47697151   232.91511512
 H      6   1   2     2.045014162878   114.66830633   100.19854341

---------------------
BASIS SET INFORMATION
---------------------
There are 2 groups of distinct atoms

 Group   1 Type C   : 7s4p1d contracted to 3s2p1d pattern {511/31/1}
 Group   2 Type H   : 4s1p contracted to 2s1p pattern {31/1}

Atom   0C    basis set group =>   1
Atom   1C    basis set group =>   1
Atom   2C    basis set group =>   1
Atom   3C    basis set group =>   1
Atom   4C    basis set group =>   1
Atom   5C    basis set group =>   1
Atom   6H    basis set group =>   2
Atom   7H    basis set group =>   2
Atom   8H    basis set group =>   2
Atom   9H    basis set group =>   2
Atom  10H    basis set group =>   2
Atom  11H    basis set group =>   2
Atom  12H    basis set group =>   2
Atom  13H    basis set group =>   2
Atom  14H    basis set group =>   2
Atom  15H    basis set group =>   2
---------------------------------
AUXILIARY/J BASIS SET INFORMATION
---------------------------------
There are 2 groups of distinct atoms

 Group   1 Type C   : 12s5p4d2f1g contracted to 6s4p3d1f1g pattern {711111/2111/211/2/1}
 Group   2 Type H   : 5s2p1d contracted to 3s1p1d pattern {311/2/1}

Atom   0C    basis set group =>   1
Atom   1C    basis set group =>   1
Atom   2C    basis set group =>   1
Atom   3C    basis set group =>   1
Atom   4C    basis set group =>   1
Atom   5C    basis set group =>   1
Atom   6H    basis set group =>   2
Atom   7H    basis set group =>   2
Atom   8H    basis set group =>   2
Atom   9H    basis set group =>   2
Atom  10H    basis set group =>   2
Atom  11H    basis set group =>   2
Atom  12H    basis set group =>   2
Atom  13H    basis set group =>   2
Atom  14H    basis set group =>   2
Atom  15H    basis set group =>   2
------------------------------------------------------------------------------
                           ORCA GTO INTEGRAL CALCULATION
                           -- RI-GTO INTEGRALS CHOSEN --
------------------------------------------------------------------------------
------------------------------------------------------------------------------
                   ___                                                        
                  /   \      - P O W E R E D   B Y -                         
                 /     \                                                     
                 |  |  |   _    _      __       _____    __    __             
                 |  |  |  | |  | |    /  \     |  _  \  |  |  /  |          
                  \  \/   | |  | |   /    \    | | | |  |  | /  /          
                 / \  \   | |__| |  /  /\  \   | |_| |  |  |/  /          
                |  |  |   |  __  | /  /__\  \  |    /   |      \           
                |  |  |   | |  | | |   __   |  |    \   |  |\   \          
                \     /   | |  | | |  |  |  |  | |\  \  |  | \   \       
                 \___/    |_|  |_| |__|  |__|  |_| \__\ |__|  \__/        
                                                                              
                      - O R C A' S   B I G   F R I E N D -                    
                                      &                                       
                       - I N T E G R A L  F E E D E R -                       
                                                                              
 v1 FN, 2020, v2 2021                                                         
------------------------------------------------------------------------------


Reading SHARK input file TS_5ZPuRE_ll_ad_2-3_4-5_optts_orca.SHARKINP.tmp ... ok
----------------------
SHARK INTEGRAL PACKAGE
----------------------

Number of atoms                             ...     16
Number of basis functions                   ...    134
Number of shells                            ...     66
Maximum angular momentum                    ...      2
Integral batch strategy                     ... SHARK/LIBINT Hybrid
RI-J (if used) integral strategy            ... SPLIT-RIJ (Revised 2003 algorithm where possible)
Printlevel                                  ...      1
Contraction scheme used                     ... SEGMENTED contraction
Coulomb Range Separation                    ... NOT USED
Exchange Range Separation                   ... NOT USED
Finite Nucleus Model                        ... NOT USED
Auxiliary Coulomb fitting basis             ... AVAILABLE
   # of basis functions in Aux-J            ...    404
   # of shells in Aux-J                     ...    140
   Maximum angular momentum in Aux-J        ...      4
Auxiliary J/K fitting basis                 ... NOT available
Auxiliary Correlation fitting basis         ... NOT available
Auxiliary 'external' fitting basis          ... NOT available
Integral threshold                          ...     2.500000e-11
Primitive cut-off                           ...     2.500000e-12
Primitive pair pre-selection threshold      ...     2.500000e-12

Calculating pre-screening integrals         ... done (  0.0 sec) Dimension = 66
Organizing shell pair data                  ... done (  0.0 sec)
Shell pair information
Total number of shell pairs                 ...      2211
Shell pairs after pre-screening             ...      2174
Total number of primitive shell pairs       ...      7611
Primitive shell pairs kept                  ...      5808
          la=0 lb=0:    728 shell pairs
          la=1 lb=0:    815 shell pairs
          la=1 lb=1:    250 shell pairs
          la=2 lb=0:    228 shell pairs
          la=2 lb=1:    132 shell pairs
          la=2 lb=2:     21 shell pairs

Calculating one electron integrals          ... done (  0.0 sec)
Calculating RI/J V-Matrix + Cholesky decomp.... done (  0.0 sec)
Calculating Nuclear repulsion               ... done (  0.0 sec) ENN=    221.532566042124 Eh

SHARK setup successfully completed in   0.1 seconds

Maximum memory used throughout the entire GTOINT-calculation: 16.2 MB
-------------------------------------------------------------------------------
                                 ORCA SCF
-------------------------------------------------------------------------------

------------
SCF SETTINGS
------------
Hamiltonian:
 Density Functional     Method          .... DFT(GTOs)
 Exchange Functional    Exchange        .... PBE
   PBE kappa parameter   XKappa         ....  0.804000
   PBE mue parameter    XMuePBE         ....  0.219520
 Correlation Functional Correlation     .... PBE
   PBE beta parameter  CBetaPBE         ....  0.066725
 LDA part of GGA corr.  LDAOpt          .... PW91-LDA
 Gradients option       PostSCFGGA      .... off
 Hybrid DFT is turned on
   Fraction HF Exchange ScalHFX         ....  0.250000
   Scaling of DF-GGA-X  ScalDFX         ....  0.750000
   Scaling of DF-GGA-C  ScalDFC         ....  1.000000
   Scaling of DF-LDA-C  ScalLDAC        ....  1.000000
   Perturbative correction              ....  0.000000
   Density functional embedding theory  .... OFF
   NL short-range parameter             ....  6.900000
 RI-approximation to the Coulomb term is turned on
   Number of AuxJ basis functions       .... 404
   RIJ-COSX (HFX calculated with COS-X)).... on


General Settings:
 Integral files         IntName         .... TS_5ZPuRE_ll_ad_2-3_4-5_optts_orca
 Hartree-Fock type      HFTyp           .... RHF
 Total Charge           Charge          ....    0
 Multiplicity           Mult            ....    1
 Number of Electrons    NEL             ....   46
 Basis Dimension        Dim             ....  134
 Nuclear Repulsion      ENuc            ....    221.5325660421 Eh

Convergence Acceleration:
 DIIS                   CNVDIIS         .... on
   Start iteration      DIISMaxIt       ....    12
   Startup error        DIISStart       ....  0.200000
   # of expansion vecs  DIISMaxEq       ....     5
   Bias factor          DIISBfac        ....   1.050
   Max. coefficient     DIISMaxC        ....  10.000
 Trust-Rad. Augm. Hess. CNVTRAH         .... auto
   Auto Start mean grad. ratio tolernc. ....  1.125000
   Auto Start start iteration           ....    20
   Auto Start num. interpolation iter.  ....    10
   Max. Number of Micro iterations      ....    16
   Max. Number of Macro iterations      .... Maxiter - #DIIS iter
   Number of Davidson start vectors     ....     2
   Converg. threshold I  (grad. norm)   ....   1.000e-05
   Converg. threshold II (energy diff.) ....   1.000e-08
   Grad. Scal. Fac. for Micro threshold ....   0.100
   Minimum threshold for Micro iter.    ....   0.010
   NR start threshold (gradient norm)   ....   0.001
   Initial trust radius                 ....   0.400
   Minimum AH scaling param. (alpha)    ....   1.000
   Maximum AH scaling param. (alpha)    .... 1000.000
   Orbital update algorithm             .... Taylor
   White noise on init. David. guess    .... on
   Maximum white noise                  ....   0.010
   Quad. conv. algorithm                .... NR
 SOSCF                  CNVSOSCF        .... on
   Start iteration      SOSCFMaxIt      ....   150
   Startup grad/error   SOSCFStart      ....  0.003300
 Level Shifting         CNVShift        .... on
   Level shift para.    LevelShift      ....    0.2500
   Turn off err/grad.   ShiftErr        ....    0.0010
 Zerner damping         CNVZerner       .... off
 Static damping         CNVDamp         .... on
   Fraction old density DampFac         ....    0.7000
   Max. Damping (<1)    DampMax         ....    0.9800
   Min. Damping (>=0)   DampMin         ....    0.0000
   Turn off err/grad.   DampErr         ....    0.1000
 Fernandez-Rico         CNVRico         .... off

SCF Procedure:
 Maximum # iterations   MaxIter         ....   250
 SCF integral mode      SCFMode         .... Direct
   Integral package                     .... SHARK and LIBINT hybrid scheme
 Reset frequency        DirectResetFreq ....    20
 Integral Threshold     Thresh          ....  2.500e-11 Eh
 Primitive CutOff       TCut            ....  2.500e-12 Eh

Convergence Tolerance:
 Convergence Check Mode ConvCheckMode   .... Total+1el-Energy
 Convergence forced     ConvForced      .... 0
 Energy Change          TolE            ....  1.000e-08 Eh
 1-El. energy change                    ....  1.000e-05 Eh
 Orbital Gradient       TolG            ....  1.000e-05
 Orbital Rotation angle TolX            ....  1.000e-05
 DIIS Error             TolErr          ....  5.000e-07


Diagonalization of the overlap matrix:
Smallest eigenvalue                        ... 1.400e-03
Time for diagonalization                   ...    0.002 sec
Threshold for overlap eigenvalues          ... 1.000e-08
Number of eigenvalues below threshold      ... 0
Time for construction of square roots      ...    0.001 sec
Total time needed                          ...    0.003 sec

Time for model grid setup =    0.138 sec

------------------------------
INITIAL GUESS: MODEL POTENTIAL
------------------------------
Loading Hartree-Fock densities                     ... done
Calculating cut-offs                               ... done
Initializing the effective Hamiltonian             ... done
Setting up the integral package (SHARK)            ... done
Starting the Coulomb interaction                   ... done (   0.1 sec)
Reading the grid                                   ... done
Mapping shells                                     ... done
Starting the XC term evaluation                    ... done (   0.2 sec)
  promolecular density results
     # of electrons  =     45.993897853
     EX              =    -33.506456922
     EC              =     -1.462774350
     EX+EC           =    -34.969231273
Transforming the Hamiltonian                       ... done (   0.0 sec)
Diagonalizing the Hamiltonian                      ... done (   0.0 sec)
Back transforming the eigenvectors                 ... done (   0.0 sec)
Now organizing SCF variables                       ... done
                      ------------------
                      INITIAL GUESS DONE (   0.4 sec)
                      ------------------
-------------------
DFT GRID GENERATION
-------------------

General Integration Accuracy     IntAcc      ... 4.388
Radial Grid Type                 RadialGrid  ... OptM3 with GC (2021)
Angular Grid (max. ang.)         AngularGrid ... 4 (Lebedev-302)
Angular grid pruning method      GridPruning ... 4 (adaptive)
Weight generation scheme         WeightScheme... Becke
Basis function cutoff            BFCut       ... 1.0000e-11
Integration weight cutoff        WCut        ... 1.0000e-14
Angular grids for H and He will be reduced by one unit
Partially contracted basis set               ... off
Rotationally invariant grid construction     ... off

Total number of grid points                  ...    68360
Total number of batches                      ...     1078
Average number of points per batch           ...       63
Average number of grid points per atom       ...     4272
Time for grid setup =    0.614 sec

--------------------
COSX GRID GENERATION
--------------------

GRIDX 1
-------
General Integration Accuracy     IntAcc      ... 3.816
Radial Grid Type                 RadialGrid  ... OptM3 with GC (2021)
Angular Grid (max. ang.)         AngularGrid ... 1 (Lebedev-50)
Angular grid pruning method      GridPruning ... 4 (adaptive)
Weight generation scheme         WeightScheme... Becke
Basis function cutoff            BFCut       ... 1.0000e-11
Integration weight cutoff        WCut        ... 1.0000e-14
Angular grids for H and He will be reduced by one unit
Partially contracted basis set               ... on
Rotationally invariant grid construction     ... off

Total number of grid points                  ...     8780
Total number of batches                      ...      146
Average number of points per batch           ...       60
Average number of grid points per atom       ...      549
UseSFitting                                  ... on

GRIDX 2
-------
General Integration Accuracy     IntAcc      ... 4.020
Radial Grid Type                 RadialGrid  ... OptM3 with GC (2021)
Angular Grid (max. ang.)         AngularGrid ... 2 (Lebedev-110)
Angular grid pruning method      GridPruning ... 4 (adaptive)
Weight generation scheme         WeightScheme... Becke
Basis function cutoff            BFCut       ... 1.0000e-11
Integration weight cutoff        WCut        ... 1.0000e-14
Angular grids for H and He will be reduced by one unit
Partially contracted basis set               ... on
Rotationally invariant grid construction     ... off

Total number of grid points                  ...    18419
Total number of batches                      ...      294
Average number of points per batch           ...       62
Average number of grid points per atom       ...     1151
UseSFitting                                  ... on

GRIDX 3
-------
General Integration Accuracy     IntAcc      ... 4.338
Radial Grid Type                 RadialGrid  ... OptM3 with GC (2021)
Angular Grid (max. ang.)         AngularGrid ... 3 (Lebedev-194)
Angular grid pruning method      GridPruning ... 4 (adaptive)
Weight generation scheme         WeightScheme... Becke
Basis function cutoff            BFCut       ... 1.0000e-11
Integration weight cutoff        WCut        ... 1.0000e-14
Angular grids for H and He will be reduced by one unit
Partially contracted basis set               ... on
Rotationally invariant grid construction     ... off

Total number of grid points                  ...    40296
Total number of batches                      ...      639
Average number of points per batch           ...       63
Average number of grid points per atom       ...     2518
UseSFitting                                  ... on

Time for X-Grid setup             =    0.679 sec

--------------
SCF ITERATIONS
--------------
ITER       Energy         Delta-E        Max-DP      RMS-DP      [F,P]     Damp
               ***  Starting incremental Fock matrix formation  ***
  0   -233.9210562373   0.000000000000 0.04962765  0.00195176  0.1204559 0.7000
  1   -233.9797744387  -0.058718201463 0.03238856  0.00143573  0.0681429 0.7000
                               ***Turning on DIIS***
  2   -234.0069725174  -0.027198078708 0.05258801  0.00266882  0.0314977 0.0000
  3   -234.0460475947  -0.039075077295 0.02256912  0.00105947  0.0366818 0.0000
  4   -234.0556233488  -0.009575754095 0.00429290  0.00022053  0.0054080 0.0000
                      *** Initiating the SOSCF procedure ***
                           *** Shutting down DIIS ***
                      *** Re-Reading the Fockian *** 
                      *** Removing any level shift *** 
ITER      Energy       Delta-E        Grad      Rot      Max-DP    RMS-DP
  5   -234.05593267  -0.0003093227  0.000487  0.000487  0.001546  0.000079
               *** Restarting incremental Fock matrix formation ***
  6   -234.05604128  -0.0001086074  0.000217  0.000759  0.000986  0.000053
  7   -234.05604201  -0.0000007351  0.000288  0.000529  0.000490  0.000017
  8   -234.05604319  -0.0000011753  0.000111  0.000203  0.000286  0.000012
  9   -234.05604318   0.0000000133  0.000064  0.000068  0.000142  0.000005
 10   -234.05604338  -0.0000002001  0.000006  0.000009  0.000035  0.000002
 11   -234.05604338  -0.0000000014  0.000003  0.000004  0.000012  0.000001
                  ***Gradient check signals convergence***
              ***Rediagonalizing the Fockian in SOSCF/NRSCF***

               *****************************************************
               *                     SUCCESS                       *
               *           SCF CONVERGED AFTER  12 CYCLES          *
               *****************************************************

Old exchange energy                            =     -8.598821520 Eh
New exchange energy                            =     -8.598826903 Eh
Exchange energy change after final integration =     -0.000005383 Eh
Total energy after final integration           =   -234.056048760 Eh
Final COS-X integration done in                =     5.566 sec

----------------
TOTAL SCF ENERGY
----------------

Total Energy       :         -234.05604876 Eh           -6368.98888 eV

Components:
Nuclear Repulsion  :          221.53256604 Eh            6028.20759 eV
Electronic Energy  :         -455.58861480 Eh          -12397.19647 eV
One Electron Energy:         -752.50652563 Eh          -20476.74358 eV
Two Electron Energy:          296.91791082 Eh            8079.54711 eV
Max COSX asymmetry :            0.00000453 Eh               0.00012 eV

Virial components:
Potential Energy   :         -465.08473075 Eh          -12655.59892 eV
Kinetic Energy     :          231.02868199 Eh            6286.61004 eV
Virial Ratio       :            2.01310386


DFT components:
N(Alpha)           :       23.000010559987 electrons
N(Beta)            :       23.000010559987 electrons
N(Total)           :       46.000021119973 electrons
E(X)               :      -25.693765512553 Eh       
E(C)               :       -1.485800586168 Eh       
E(XC)              :      -27.179566098721 Eh       
DFET-embed. en.    :        0.000000000000 Eh       

---------------
SCF CONVERGENCE
---------------

  Last Energy change         ...    1.5959e-10  Tolerance :   1.0000e-08
  Last MAX-Density change    ...    3.9968e-15  Tolerance :   1.0000e-07
  Last RMS-Density change    ...    5.2478e-17  Tolerance :   5.0000e-09
  Last Orbital Gradient      ...    1.7055e-06  Tolerance :   1.0000e-05
  Last Orbital Rotation      ...    5.2147e-06  Tolerance :   1.0000e-05

             **** THE GBW FILE WAS UPDATED (TS_5ZPuRE_ll_ad_2-3_4-5_optts_orca.gbw) ****
             **** DENSITY TS_5ZPuRE_ll_ad_2-3_4-5_optts_orca.scfp WAS UPDATED ****
             **** ENERGY FILE WAS UPDATED (TS_5ZPuRE_ll_ad_2-3_4-5_optts_orca.en.tmp) ****
             **** THE GBW FILE WAS UPDATED (TS_5ZPuRE_ll_ad_2-3_4-5_optts_orca.gbw) ****
             **** DENSITY TS_5ZPuRE_ll_ad_2-3_4-5_optts_orca.scfp WAS UPDATED ****
----------------
ORBITAL ENERGIES
----------------

  NO   OCC          E(Eh)            E(eV) 
   0   2.0000     -10.246962      -278.8340 
   1   2.0000     -10.246707      -278.8271 
   2   2.0000     -10.244315      -278.7620 
   3   2.0000     -10.244294      -278.7614 
   4   2.0000     -10.227016      -278.2912 
   5   2.0000     -10.226187      -278.2687 
   6   2.0000      -0.813972       -22.1493 
   7   2.0000      -0.756440       -20.5838 
   8   2.0000      -0.725956       -19.7543 
   9   2.0000      -0.640204       -17.4208 
  10   2.0000      -0.595651       -16.2085 
  11   2.0000      -0.517896       -14.0927 
  12   2.0000      -0.481751       -13.1091 
  13   2.0000      -0.460214       -12.5231 
  14   2.0000      -0.426889       -11.6162 
  15   2.0000      -0.426268       -11.5994 
  16   2.0000      -0.422630       -11.5004 
  17   2.0000      -0.403663       -10.9842 
  18   2.0000      -0.379297       -10.3212 
  19   2.0000      -0.364246        -9.9116 
  20   2.0000      -0.284817        -7.7503 
  21   2.0000      -0.261300        -7.1103 
  22   2.0000      -0.227135        -6.1807 
  23   0.0000       0.000375         0.0102 
  24   0.0000       0.039424         1.0728 
  25   0.0000       0.062294         1.6951 
  26   0.0000       0.074043         2.0148 
  27   0.0000       0.107441         2.9236 
  28   0.0000       0.108464         2.9515 
  29   0.0000       0.122006         3.3200 
  30   0.0000       0.143197         3.8966 
  31   0.0000       0.153575         4.1790 
  32   0.0000       0.169278         4.6063 
  33   0.0000       0.170433         4.6377 
  34   0.0000       0.178143         4.8475 
  35   0.0000       0.190642         5.1876 
  36   0.0000       0.262360         7.1392 
  37   0.0000       0.281503         7.6601 
  38   0.0000       0.341049         9.2804 
  39   0.0000       0.403348        10.9757 
  40   0.0000       0.403900        10.9907 
  41   0.0000       0.437813        11.9135 
  42   0.0000       0.442781        12.0487 
  43   0.0000       0.467662        12.7257 
  44   0.0000       0.507528        13.8105 
  45   0.0000       0.520836        14.1727 
  46   0.0000       0.522130        14.2079 
  47   0.0000       0.544102        14.8058 
  48   0.0000       0.564017        15.3477 
  49   0.0000       0.588965        16.0265 
  50   0.0000       0.608342        16.5538 
  51   0.0000       0.628844        17.1117 
  52   0.0000       0.645558        17.5665 
  53   0.0000       0.652001        17.7418 
  54   0.0000       0.680627        18.5208 
  55   0.0000       0.684004        18.6127 
  56   0.0000       0.692698        18.8493 
  57   0.0000       0.700849        19.0711 
  58   0.0000       0.706067        19.2131 
  59   0.0000       0.712513        19.3885 
  60   0.0000       0.720428        19.6038 
  61   0.0000       0.730400        19.8752 
  62   0.0000       0.734795        19.9948 
  63   0.0000       0.734859        19.9965 
  64   0.0000       0.738467        20.0947 
  65   0.0000       0.742630        20.2080 
  66   0.0000       0.755129        20.5481 
  67   0.0000       0.839949        22.8562 
  68   0.0000       0.884244        24.0615 
  69   0.0000       0.973318        26.4853 
  70   0.0000       0.975854        26.5543 
  71   0.0000       1.061891        28.8955 
  72   0.0000       1.139528        31.0081 
  73   0.0000       1.166123        31.7318 
  74   0.0000       1.218693        33.1623 
  75   0.0000       1.256495        34.1910 
  76   0.0000       1.262587        34.3567 
  77   0.0000       1.269274        34.5387 
  78   0.0000       1.303109        35.4594 
  79   0.0000       1.447055        39.3764 
  80   0.0000       1.497061        40.7371 
  81   0.0000       1.548414        42.1345 
  82   0.0000       1.557353        42.3777 
  83   0.0000       1.578620        42.9564 
  84   0.0000       1.609357        43.7928 
  85   0.0000       1.658306        45.1248 
  86   0.0000       1.686351        45.8880 
  87   0.0000       1.702424        46.3253 
  88   0.0000       1.748440        47.5775 
  89   0.0000       1.754090        47.7312 
  90   0.0000       1.776159        48.3317 
  91   0.0000       1.785240        48.5789 
  92   0.0000       1.807806        49.1929 
  93   0.0000       1.824326        49.6424 
  94   0.0000       1.852318        50.4041 
  95   0.0000       1.879184        51.1352 
  96   0.0000       1.901090        51.7313 
  97   0.0000       1.912357        52.0379 
  98   0.0000       1.931134        52.5488 
  99   0.0000       1.946793        52.9749 
 100   0.0000       1.957537        53.2673 
 101   0.0000       1.986133        54.0454 
 102   0.0000       2.012137        54.7530 
 103   0.0000       2.046751        55.6949 
 104   0.0000       2.061125        56.0861 
 105   0.0000       2.093827        56.9759 
 106   0.0000       2.109330        57.3978 
 107   0.0000       2.148771        58.4710 
 108   0.0000       2.160544        58.7914 
 109   0.0000       2.253842        61.3302 
 110   0.0000       2.266420        61.6724 
 111   0.0000       2.275693        61.9247 
 112   0.0000       2.352164        64.0056 
 113   0.0000       2.374578        64.6155 
 114   0.0000       2.393684        65.1355 
 115   0.0000       2.439944        66.3943 
 116   0.0000       2.447077        66.5884 
 117   0.0000       2.469127        67.1884 
 118   0.0000       2.485882        67.6443 
 119   0.0000       2.622363        71.3581 
 120   0.0000       2.668396        72.6108 
 121   0.0000       2.715665        73.8970 
 122   0.0000       2.723805        74.1185 
 123   0.0000       2.844301        77.3974 
 124   0.0000       2.865543        77.9754 
 125   0.0000       2.888883        78.6105 
 126   0.0000       2.905351        79.0586 
 127   0.0000       2.954461        80.3950 
 128   0.0000       2.980003        81.0900 
 129   0.0000       3.013994        82.0149 
 130   0.0000       3.031447        82.4899 
 131   0.0000       3.044498        82.8450 
 132   0.0000       3.116006        84.7908 
 133   0.0000       3.313825        90.1738 

                    ********************************
                    * MULLIKEN POPULATION ANALYSIS *
                    ********************************

-----------------------
MULLIKEN ATOMIC CHARGES
-----------------------
   0 C :   -0.089834
   1 C :   -0.089428
   2 C :   -0.071962
   3 C :   -0.095798
   4 C :   -0.095564
   5 C :   -0.071882
   6 H :    0.028669
   7 H :    0.028564
   8 H :    0.055892
   9 H :    0.062045
  10 H :    0.056041
  11 H :    0.054625
  12 H :    0.054670
  13 H :    0.056232
  14 H :    0.055339
  15 H :    0.062393
Sum of atomic charges:   -0.0000000

--------------------------------
MULLIKEN REDUCED ORBITAL CHARGES
--------------------------------
  0 C s       :     3.116090  s :     3.116090
      pz      :     1.012346  p :     2.936305
      px      :     0.991061
      py      :     0.932898
      dz2     :     0.002469  d :     0.037439
      dxz     :     0.007581
      dyz     :     0.002919
      dx2y2   :     0.009725
      dxy     :     0.014745
  1 C s       :     3.116167  s :     3.116167
      pz      :     1.011938  p :     2.935817
      px      :     1.001202
      py      :     0.922678
      dz2     :     0.002389  d :     0.037443
      dxz     :     0.008926
      dyz     :     0.001521
      dx2y2   :     0.012910
      dxy     :     0.011698
  2 C s       :     3.098906  s :     3.098906
      pz      :     0.993967  p :     2.946076
      px      :     0.998666
      py      :     0.953442
      dz2     :     0.004958  d :     0.026981
      dxz     :     0.009769
      dyz     :     0.001800
      dx2y2   :     0.004824
      dxy     :     0.005630
  3 C s       :     3.144926  s :     3.144926
      pz      :     0.999854  p :     2.922790
      px      :     0.953321
      py      :     0.969615
      dz2     :     0.008537  d :     0.028082
      dxz     :     0.006731
      dyz     :     0.002444
      dx2y2   :     0.003957
      dxy     :     0.006413
  4 C s       :     3.145267  s :     3.145267
      pz      :     1.003139  p :     2.922234
      px      :     0.948730
      py      :     0.970364
      dz2     :     0.009233  d :     0.028063
      dxz     :     0.005791
      dyz     :     0.001871
      dx2y2   :     0.003647
      dxy     :     0.007521
  5 C s       :     3.099387  s :     3.099387
      pz      :     0.991542  p :     2.945519
      px      :     1.009313
      py      :     0.944664
      dz2     :     0.003998  d :     0.026975
      dxz     :     0.007806
      dyz     :     0.004678
      dx2y2   :     0.005173
      dxy     :     0.005320
  6 H s       :     0.947377  s :     0.947377
      pz      :     0.005101  p :     0.023954
      px      :     0.008019
      py      :     0.010834
  7 H s       :     0.947476  s :     0.947476
      pz      :     0.005229  p :     0.023960
      px      :     0.004948
      py      :     0.013784
  8 H s       :     0.919954  s :     0.919954
      pz      :     0.011003  p :     0.024154
      px      :     0.008502
      py      :     0.004649
  9 H s       :     0.913802  s :     0.913802
      pz      :     0.012966  p :     0.024153
      px      :     0.006583
      py      :     0.004605
 10 H s       :     0.920296  s :     0.920296
      pz      :     0.014415  p :     0.023663
      px      :     0.004549
      py      :     0.004699
 11 H s       :     0.921361  s :     0.921361
      pz      :     0.005708  p :     0.024014
      px      :     0.011806
      py      :     0.006501
 12 H s       :     0.921309  s :     0.921309
      pz      :     0.004745  p :     0.024021
      px      :     0.008888
      py      :     0.010388
 13 H s       :     0.920096  s :     0.920096
      pz      :     0.013875  p :     0.023672
      px      :     0.004416
      py      :     0.005381
 14 H s       :     0.920534  s :     0.920534
      pz      :     0.011042  p :     0.024127
      px      :     0.008722
      py      :     0.004363
 15 H s       :     0.913434  s :     0.913434
      pz      :     0.011693  p :     0.024174
      px      :     0.005995
      py      :     0.006486


                     *******************************
                     * LOEWDIN POPULATION ANALYSIS *
                     *******************************

----------------------
LOEWDIN ATOMIC CHARGES
----------------------
   0 C :   -0.059260
   1 C :   -0.058986
   2 C :   -0.039819
   3 C :   -0.037952
   4 C :   -0.037635
   5 C :   -0.039556
   6 H :    0.031848
   7 H :    0.031838
   8 H :    0.027864
   9 H :    0.029508
  10 H :    0.024080
  11 H :    0.023328
  12 H :    0.023408
  13 H :    0.024143
  14 H :    0.027669
  15 H :    0.029522

-------------------------------
LOEWDIN REDUCED ORBITAL CHARGES
-------------------------------
  0 C s       :     2.862210  s :     2.862210
      pz      :     0.983308  p :     3.101276
      px      :     1.080235
      py      :     1.037732
      dz2     :     0.006099  d :     0.095774
      dxz     :     0.015241
      dyz     :     0.005656
      dx2y2   :     0.027400
      dxy     :     0.041378
  1 C s       :     2.862271  s :     2.862271
      pz      :     0.982459  p :     3.100962
      px      :     1.081239
      py      :     1.037264
      dz2     :     0.005989  d :     0.095753
      dxz     :     0.017681
      dyz     :     0.002951
      dx2y2   :     0.034999
      dxy     :     0.034133
  2 C s       :     2.895094  s :     2.895094
      pz      :     1.067007  p :     3.079267
      px      :     1.034551
      py      :     0.977710
      dz2     :     0.013905  d :     0.065458
      dxz     :     0.024456
      dyz     :     0.003246
      dx2y2   :     0.010061
      dxy     :     0.013790
  3 C s       :     2.895748  s :     2.895748
      pz      :     1.065950  p :     3.073771
      px      :     1.047993
      py      :     0.959829
      dz2     :     0.021179  d :     0.068433
      dxz     :     0.018834
      dyz     :     0.004533
      dx2y2   :     0.010246
      dxy     :     0.013641
  4 C s       :     2.895720  s :     2.895720
      pz      :     1.054288  p :     3.073517
      px      :     1.021090
      py      :     0.998139
      dz2     :     0.022105  d :     0.068399
      dxz     :     0.015430
      dyz     :     0.004484
      dx2y2   :     0.008130
      dxy     :     0.018250
  5 C s       :     2.894997  s :     2.894997
      pz      :     1.059240  p :     3.079091
      px      :     1.014169
      py      :     1.005683
      dz2     :     0.010695  d :     0.065467
      dxz     :     0.018971
      dyz     :     0.011661
      dx2y2   :     0.010925
      dxy     :     0.013215
  6 H s       :     0.898203  s :     0.898203
      pz      :     0.015954  p :     0.069948
      px      :     0.021686
      py      :     0.032309
  7 H s       :     0.898199  s :     0.898199
      pz      :     0.016250  p :     0.069963
      px      :     0.014131
      py      :     0.039582
  8 H s       :     0.898728  s :     0.898728
      pz      :     0.031180  p :     0.073409
      px      :     0.025903
      py      :     0.016326
  9 H s       :     0.897103  s :     0.897103
      pz      :     0.037427  p :     0.073389
      px      :     0.019816
      py      :     0.016145
 10 H s       :     0.904218  s :     0.904218
      pz      :     0.042483  p :     0.071702
      px      :     0.013187
      py      :     0.016032
 11 H s       :     0.903757  s :     0.903757
      pz      :     0.016111  p :     0.072915
      px      :     0.034967
      py      :     0.021837
 12 H s       :     0.903666  s :     0.903666
      pz      :     0.013475  p :     0.072926
      px      :     0.026696
      py      :     0.032755
 13 H s       :     0.904120  s :     0.904120
      pz      :     0.041695  p :     0.071738
      px      :     0.013882
      py      :     0.016160
 14 H s       :     0.899021  s :     0.899021
      pz      :     0.031167  p :     0.073310
      px      :     0.027625
      py      :     0.014518
 15 H s       :     0.897000  s :     0.897000
      pz      :     0.034469  p :     0.073478
      px      :     0.018873
      py      :     0.020136


                      *****************************
                      * MAYER POPULATION ANALYSIS *
                      *****************************

  NA   - Mulliken gross atomic population
  ZA   - Total nuclear charge
  QA   - Mulliken gross atomic charge
  VA   - Mayer's total valence
  BVA  - Mayer's bonded valence
  FA   - Mayer's free valence

  ATOM       NA         ZA         QA         VA         BVA        FA
  0 C      6.0898     6.0000    -0.0898     4.0459     4.0459     0.0000
  1 C      6.0894     6.0000    -0.0894     4.0458     4.0458     0.0000
  2 C      6.0720     6.0000    -0.0720     3.9319     3.9319    -0.0000
  3 C      6.0958     6.0000    -0.0958     4.0058     4.0058    -0.0000
  4 C      6.0956     6.0000    -0.0956     4.0063     4.0063    -0.0000
  5 C      6.0719     6.0000    -0.0719     3.9322     3.9322    -0.0000
  6 H      0.9713     1.0000     0.0287     0.9800     0.9800    -0.0000
  7 H      0.9714     1.0000     0.0286     0.9800     0.9800    -0.0000
  8 H      0.9441     1.0000     0.0559     0.9754     0.9754    -0.0000
  9 H      0.9380     1.0000     0.0620     0.9745     0.9745    -0.0000
 10 H      0.9440     1.0000     0.0560     0.9728     0.9728    -0.0000
 11 H      0.9454     1.0000     0.0546     0.9680     0.9680    -0.0000
 12 H      0.9453     1.0000     0.0547     0.9681     0.9681    -0.0000
 13 H      0.9438     1.0000     0.0562     0.9728     0.9728    -0.0000
 14 H      0.9447     1.0000     0.0553     0.9753     0.9753    -0.0000
 15 H      0.9376     1.0000     0.0624     0.9746     0.9746    -0.0000

  Mayer bond orders larger than 0.100000
B(  0-C ,  1-C ) :   1.9745 B(  0-C ,  5-C ) :   1.0524 B(  0-C ,  6-H ) :   0.9436 
B(  1-C ,  2-C ) :   1.0520 B(  1-C ,  7-H ) :   0.9434 B(  2-C ,  3-C ) :   0.9533 
B(  2-C ,  8-H ) :   0.9483 B(  2-C ,  9-H ) :   0.9455 B(  3-C ,  4-C ) :   1.1218 
B(  3-C , 10-H ) :   0.9620 B(  3-C , 11-H ) :   0.9518 B(  4-C ,  5-C ) :   0.9533 
B(  4-C , 12-H ) :   0.9518 B(  4-C , 13-H ) :   0.9621 B(  5-C , 14-H ) :   0.9484 
B(  5-C , 15-H ) :   0.9456 


------------------
HIRSHFELD ANALYSIS
------------------

Total integrated alpha density =     23.000010560
Total integrated beta density  =     23.000010560

  ATOM     CHARGE      SPIN    
   0 C   -0.046571    0.000000
   1 C   -0.046431    0.000000
   2 C   -0.043849    0.000000
   3 C   -0.041019    0.000000
   4 C   -0.040967    0.000000
   5 C   -0.043757    0.000000
   6 H    0.028610    0.000000
   7 H    0.028603    0.000000
   8 H    0.026526    0.000000
   9 H    0.026581    0.000000
  10 H    0.025674    0.000000
  11 H    0.023831    0.000000
  12 H    0.023910    0.000000
  13 H    0.025778    0.000000
  14 H    0.026361    0.000000
  15 H    0.026700    0.000000

  TOTAL  -0.000021    0.000000

-------
TIMINGS
-------

Total SCF time: 0 days 0 hours 0 min 41 sec 

Total time                  ....      41.525 sec
Sum of individual times     ....      41.392 sec  ( 99.7%)

Fock matrix formation       ....      39.320 sec  ( 94.7%)
  Split-RI-J                ....       2.413 sec  (  6.1% of F)
  Chain of spheres X        ....      30.059 sec  ( 76.4% of F)
  XC integration            ....       6.851 sec  ( 17.4% of F)
    Basis function eval.    ....       2.550 sec  ( 37.2% of XC)
    Density eval.           ....       1.807 sec  ( 26.4% of XC)
    XC-Functional eval.     ....       0.536 sec  (  7.8% of XC)
    XC-Potential eval.      ....       1.690 sec  ( 24.7% of XC)
Diagonalization             ....       0.015 sec  (  0.0%)
Density matrix formation    ....       0.002 sec  (  0.0%)
Population analysis         ....       0.301 sec  (  0.7%)
Initial guess               ....       0.308 sec  (  0.7%)
Orbital Transformation      ....       0.000 sec  (  0.0%)
Orbital Orthonormalization  ....       0.000 sec  (  0.0%)
DIIS solution               ....       0.004 sec  (  0.0%)
SOSCF solution              ....       0.010 sec  (  0.0%)
Grid generation             ....       1.431 sec  (  3.4%)

Maximum memory used throughout the entire SCF-calculation: 62.1 MB


-------------------------------------------------------------------------------
                          DFT DISPERSION CORRECTION                            
                                                                               
                              DFTD3 V3.1  Rev 1                                
                          USING Becke-Johnson damping                          
-------------------------------------------------------------------------------
The PBE0 functional is recognized
Active option DFTDOPT                   ...         4   

molecular C6(AA) [au] = 2234.623190 


            DFT-D V3
 parameters
 s6 scaling factor         :     1.0000 
 a1 scaling factor         :     0.4145 
 s8 scaling factor         :     1.2177 
 a2 scaling factor         :     4.8593 
 ad hoc parameters k1-k3   :    16.0000     1.3333    -4.0000 

 Edisp/kcal,au: -7.759186102579  -0.012365048809 
 E6   /kcal   :  -4.948179408 
 E8   /kcal   :  -2.811006695 
 % E8         :  36.228112812 

-------------------------   ----------------
Dispersion correction           -0.012365049
-------------------------   ----------------


-------------------------   --------------------
FINAL SINGLE POINT ENERGY      -234.068413808831
-------------------------   --------------------

------------------------------------------------------------------------------
                         ORCA SCF GRADIENT CALCULATION
------------------------------------------------------------------------------

 ... reading COSX grid (gridx3)
Gradient of the Kohn-Sham DFT energy:
Kohn-Sham wavefunction type      ... RKS
Hartree-Fock exchange scaling    ...    0.250
Number of operators              ...    1
Number of atoms                  ...   16
Basis set dimensions             ...  134
Integral neglect threshold       ... 2.5e-11
Integral primitive cutoff        ... 2.5e-12
SHARK Integral package           ... ON

Nuc. rep. gradient       (SHARK) ... done (  0.0 sec)
HCore & Overlap gradient (SHARK) ... done (  0.1 sec)
RI-J gradient            (SHARK) ... done (  0.7 sec)
COSX-gradient                    ... done (  6.5 sec)
Exchange-correlation gradient    ... done
Dispersion correction            ... done

------------------
CARTESIAN GRADIENT
------------------

   1   C   :    0.012599266   -0.004380823   -0.000331099
   2   C   :   -0.013434918    0.000156707   -0.000252317
   3   C   :    0.034499305   -0.075729929    0.004342343
   4   C   :   -0.025220854    0.078751912   -0.007330115
   5   C   :    0.048896005    0.059587482    0.030705133
   6   C   :   -0.056631306   -0.054795833   -0.026735289
   7   H   :    0.002548024    0.008377057    0.001707369
   8   H   :    0.000402134    0.008884100    0.000833315
   9   H   :   -0.008952329    0.001790322    0.007086195
  10   H   :   -0.007901459    0.001840973   -0.008938379
  11   H   :    0.001053361   -0.003925955    0.010903120
  12   H   :   -0.008503734   -0.007696966   -0.002112753
  13   H   :    0.005367308   -0.010287442   -0.000912912
  14   H   :   -0.001620834    0.000353556   -0.011648742
  15   H   :    0.009545171    0.000841722   -0.006266173
  16   H   :    0.007313973   -0.003864887    0.008963134

Difference to translation invariance:
           :   -0.0000408862   -0.0000980048    0.0000128303

Difference to rotation invariance:
           :    0.0002964918    0.0006053763    0.0002696530

Norm of the cartesian gradient     ...    0.1710759741
RMS gradient                       ...    0.0246926899
MAX gradient                       ...    0.0787519119

-------
TIMINGS
-------

Total SCF gradient time            ...       11.441 sec

One electron gradient       ....       0.132 sec  (  1.2%)
RI-J Coulomb gradient       ....       0.661 sec  (  5.8%)
COSX gradient               ....       6.537 sec  ( 57.1%)
XC gradient                 ....       3.771 sec  ( 33.0%)

Maximum memory used throughout the entire SCFGRAD-calculation: 49.6 MB

-------------------------------------------------------------------------------
                               ORCA SCF HESSIAN
-------------------------------------------------------------------------------

                   --------- SHARK INITIALIZATION DONE ---------

Hessian of the Kohn-Sham DFT energy:
Kohn-Sham wavefunction type                      ... RKS
Hartree-Fock exchange scaling                    ...    0.250
Number of operators                              ...    1
Number of atoms                                  ...   16
Basis set dimensions                             ...  134
Integral neglect threshold                       ... 2.5e-11
Integral primitive cutoff                        ... 2.5e-12

Setting up DFT Hessian calculations              ... 

HESS GRID
---------

General Integration Accuracy     IntAcc      ... 4.629
Radial Grid Type                 RadialGrid  ... OptM3 with GC (2021)
Angular Grid (max. ang.)         AngularGrid ... 5 (Lebedev-434)
Angular grid pruning method      GridPruning ... 4 (adaptive)
Weight generation scheme         WeightScheme... Becke
Basis function cutoff            BFCut       ... 1.0000e-11
Integration weight cutoff        WCut        ... 1.0000e-14
Angular grids for H and He will be reduced by one unit
Partially contracted basis set               ... off
Rotationally invariant grid construction     ... off

Total number of grid points                  ...   105960
Total number of batches                      ...     1665
Average number of points per batch           ...       63
Average number of grid points per atom       ...     6622

Building densities                               ... done   (      0.0 sec)
Calculating rho(r) on the grid                   ... done   (      0.5 sec)
Building xc-kernel on the grid                   ... done   (      0.1 sec)
                                                     done   (      1.8 sec)

Nuclear repulsion Hessian  (SHARK)               ... done   (      0.0 sec)

----------------------------------------------
Forming right-hand sides of CP-SCF equations     ...
----------------------------------------------
One electron integral derivatives  (SHARK)       ... done   (      0.2 sec)
Transforming the overlap derivative matrices     ... done   (      0.0 sec)
Making the Q(x) pseudodensities                  ... done   (      0.0 sec)
Adding the E*S(x)*S(y) terms to the Hessian      ... done   (      0.0 sec)
Calculating energy weighted overlap derivatives  ... done   (      0.0 sec)
Two electron integral derivatives (SHARK-RI)     ... done   (     13.6 sec)
Exchange-correlation integral derivatives        ... done   (     62.6 sec)
tr(F(y)Q(x)) contribution to the Hessian         ... done   (      0.0 sec)
Response fock operator R(S(x)) (SHARK-RIJCOSX)   ... done   (     10.9 sec)
XC Response fock operator R(S(x))                ... done   (     21.8 sec)
tr(F(y)S(x)) contribution to the Hessian         ... done   (      0.0 sec)
Transforming and finalizing RHSs                 ... done   (      0.0 sec)

----------------------------------------------
Solving the CP-SCF equations (RIJCOSX)           ...
----------------------------------------------
     CP-SCF ITERATION   0:   2.6120e-01 (   6.1 sec   0/ 48 done)
     CP-SCF ITERATION   1:   4.6794e-02 (   6.5 sec   0/ 48 done)
     CP-SCF ITERATION   2:   1.0321e-02 (   6.4 sec   0/ 48 done)
     CP-SCF ITERATION   3:   3.0697e-03 (   6.4 sec   0/ 48 done)
     CP-SCF ITERATION   4:   1.1804e-03 (   6.4 sec   0/ 48 done)
     CP-SCF ITERATION   5:   3.4455e-04 (   6.5 sec  12/ 48 done)
     CP-SCF ITERATION   6:   1.3421e-04 (   5.0 sec  45/ 48 done)
     CP-SCF ITERATION   7:   2.5912e-05 (   1.4 sec  48/ 48 done)
                    *** THE CP-SCF HAS CONVERGED ***

                                                 ... done   (     44.7 sec)
Forming perturbed density Hessian contributions  ... done   (      0.0 sec)
2nd integral derivative contribs (SHARK-RI)      ... done   (     58.5 sec)
Exchange-correlation Hessian                     ... done   (     58.6 sec)
Dispersion correction in the Hessian             ... done   (      3.5 sec)
Dipole derivatives                               ... (center of mass: -0.039518, -0.227202 -0.036545)done   (      0.1 sec)

Total SCF Hessian time: 0 days 0 hours 4 min 36 sec 

Writing the Hessian file to the disk             ... done


Maximum memory used throughout the entire SCFHESS-calculation: 119.3 MB

-----------------------
VIBRATIONAL FREQUENCIES
-----------------------

Scaling factor for frequencies =  1.000000000  (already applied!)

   0:         0.00 cm**-1
   1:         0.00 cm**-1
   2:         0.00 cm**-1
   3:         0.00 cm**-1
   4:         0.00 cm**-1
   5:         0.00 cm**-1
   6:      -273.24 cm**-1 ***imaginary mode***
   7:      -262.56 cm**-1 ***imaginary mode***
   8:      -172.23 cm**-1 ***imaginary mode***
   9:        82.80 cm**-1
  10:       289.73 cm**-1
  11:       299.71 cm**-1
  12:       433.31 cm**-1
  13:       511.32 cm**-1
  14:       577.93 cm**-1
  15:       623.66 cm**-1
  16:       681.91 cm**-1
  17:       780.58 cm**-1
  18:       807.52 cm**-1
  19:       903.28 cm**-1
  20:       917.33 cm**-1
  21:       921.15 cm**-1
  22:       951.80 cm**-1
  23:       955.93 cm**-1
  24:      1003.71 cm**-1
  25:      1039.22 cm**-1
  26:      1054.90 cm**-1
  27:      1057.37 cm**-1
  28:      1127.51 cm**-1
  29:      1161.79 cm**-1
  30:      1206.14 cm**-1
  31:      1240.33 cm**-1
  32:      1373.84 cm**-1
  33:      1393.70 cm**-1
  34:      1394.16 cm**-1
  35:      1428.36 cm**-1
  36:      1447.72 cm**-1
  37:      1814.47 cm**-1
  38:      3222.48 cm**-1
  39:      3242.75 cm**-1
  40:      3254.60 cm**-1
  41:      3256.54 cm**-1
  42:      3258.80 cm**-1
  43:      3262.47 cm**-1
  44:      3354.00 cm**-1
  45:      3354.71 cm**-1
  46:      3363.43 cm**-1
  47:      3377.88 cm**-1


------------
NORMAL MODES
------------

These modes are the Cartesian displacements weighted by the diagonal matrix
M(i,i)=1/sqrt(m[i]) where m[i] is the mass of the displaced atom
Thus, these vectors are normalized but *not* orthogonal

                  0          1          2          3          4          5    
      0       0.000000   0.000000   0.000000   0.000000   0.000000   0.000000
      1       0.000000   0.000000   0.000000   0.000000   0.000000   0.000000
      2       0.000000   0.000000   0.000000   0.000000   0.000000   0.000000
      3       0.000000   0.000000   0.000000   0.000000   0.000000   0.000000
      4       0.000000   0.000000   0.000000   0.000000   0.000000   0.000000
      5       0.000000   0.000000   0.000000   0.000000   0.000000   0.000000
      6       0.000000   0.000000   0.000000   0.000000   0.000000   0.000000
      7       0.000000   0.000000   0.000000   0.000000   0.000000   0.000000
      8       0.000000   0.000000   0.000000   0.000000   0.000000   0.000000
      9       0.000000   0.000000   0.000000   0.000000   0.000000   0.000000
     10       0.000000   0.000000   0.000000   0.000000   0.000000   0.000000
     11       0.000000   0.000000   0.000000   0.000000   0.000000   0.000000
     12       0.000000   0.000000   0.000000   0.000000   0.000000   0.000000
     13       0.000000   0.000000   0.000000   0.000000   0.000000   0.000000
     14       0.000000   0.000000   0.000000   0.000000   0.000000   0.000000
     15       0.000000   0.000000   0.000000   0.000000   0.000000   0.000000
     16       0.000000   0.000000   0.000000   0.000000   0.000000   0.000000
     17       0.000000   0.000000   0.000000   0.000000   0.000000   0.000000
     18       0.000000   0.000000   0.000000   0.000000   0.000000   0.000000
     19       0.000000   0.000000   0.000000   0.000000   0.000000   0.000000
     20       0.000000   0.000000   0.000000   0.000000   0.000000   0.000000
     21       0.000000   0.000000   0.000000   0.000000   0.000000   0.000000
     22       0.000000   0.000000   0.000000   0.000000   0.000000   0.000000
     23       0.000000   0.000000   0.000000   0.000000   0.000000   0.000000
     24       0.000000   0.000000   0.000000   0.000000   0.000000   0.000000
     25       0.000000   0.000000   0.000000   0.000000   0.000000   0.000000
     26       0.000000   0.000000   0.000000   0.000000   0.000000   0.000000
     27       0.000000   0.000000   0.000000   0.000000   0.000000   0.000000
     28       0.000000   0.000000   0.000000   0.000000   0.000000   0.000000
     29       0.000000   0.000000   0.000000   0.000000   0.000000   0.000000
     30       0.000000   0.000000   0.000000   0.000000   0.000000   0.000000
     31       0.000000   0.000000   0.000000   0.000000   0.000000   0.000000
     32       0.000000   0.000000   0.000000   0.000000   0.000000   0.000000
     33       0.000000   0.000000   0.000000   0.000000   0.000000   0.000000
     34       0.000000   0.000000   0.000000   0.000000   0.000000   0.000000
     35       0.000000   0.000000   0.000000   0.000000   0.000000   0.000000
     36       0.000000   0.000000   0.000000   0.000000   0.000000   0.000000
     37       0.000000   0.000000   0.000000   0.000000   0.000000   0.000000
     38       0.000000   0.000000   0.000000   0.000000   0.000000   0.000000
     39       0.000000   0.000000   0.000000   0.000000   0.000000   0.000000
     40       0.000000   0.000000   0.000000   0.000000   0.000000   0.000000
     41       0.000000   0.000000   0.000000   0.000000   0.000000   0.000000
     42       0.000000   0.000000   0.000000   0.000000   0.000000   0.000000
     43       0.000000   0.000000   0.000000   0.000000   0.000000   0.000000
     44       0.000000   0.000000   0.000000   0.000000   0.000000   0.000000
     45       0.000000   0.000000   0.000000   0.000000   0.000000   0.000000
     46       0.000000   0.000000   0.000000   0.000000   0.000000   0.000000
     47       0.000000   0.000000   0.000000   0.000000   0.000000   0.000000
                  6          7          8          9         10         11    
      0       0.017779   0.003031   0.041535  -0.001343  -0.000417   0.050493
      1       0.065332   0.018862   0.091500  -0.004211   0.070475   0.042920
      2      -0.032486   0.078535   0.061365  -0.013361  -0.182538  -0.037623
      3       0.007634   0.001741   0.006231  -0.001363   0.010943   0.036832
      4       0.052426   0.043871  -0.114168  -0.009794   0.013703  -0.042643
      5      -0.064653   0.059198   0.030117   0.011901   0.199692  -0.032844
      6      -0.033599  -0.044547   0.126222  -0.015861   0.041021   0.037997
      7       0.101866   0.144882  -0.271164   0.002958  -0.003485  -0.061900
      8       0.099132  -0.097527  -0.050261   0.061629   0.004682   0.014391
      9       0.000842   0.016874  -0.138912  -0.084629  -0.019398  -0.098082
     10      -0.172011  -0.161326   0.256036   0.032488  -0.020031  -0.120829
     11      -0.051568   0.042379  -0.000144  -0.116828  -0.029925   0.026766
     12      -0.081180  -0.042983  -0.217194   0.081238   0.017338  -0.054114
     13      -0.162868  -0.134865  -0.180695  -0.036870  -0.046320   0.125805
     14      -0.097936   0.008686  -0.076750   0.115817   0.014409   0.069037
     15       0.101008   0.050966   0.208939   0.022400  -0.046423   0.053746
     16       0.110693   0.085077   0.214742   0.019098   0.007340   0.040873
     17       0.136601  -0.079596   0.032930  -0.058631  -0.005883   0.031269
     18      -0.040741  -0.001141  -0.102454  -0.010731   0.020739   0.003072
     19       0.144350  -0.013308   0.201830   0.004838   0.072401   0.086405
     20      -0.266640   0.352046   0.083083  -0.024224  -0.319068  -0.095170
     21       0.027123   0.062837  -0.167629   0.007060  -0.010829  -0.020849
     22       0.104581   0.023959  -0.173556  -0.009072  -0.015779  -0.052227
     23      -0.331747   0.312289   0.028810   0.025843   0.333752  -0.085729
     24       0.219731  -0.218940   0.003199   0.135031  -0.249287  -0.097105
     25      -0.080554   0.173452  -0.144540  -0.072600  -0.026803   0.120161
     26       0.313086  -0.250797  -0.149417   0.192361  -0.245010  -0.103684
     27      -0.283991   0.229279   0.167028  -0.201176   0.380791   0.195552
     28       0.158505  -0.055046  -0.113085   0.139459   0.028941  -0.202082
     29       0.232688  -0.238873  -0.075221   0.161625  -0.172824  -0.070655
     30      -0.010128   0.016127   0.015872  -0.349262  -0.085596  -0.285379
     31      -0.231135  -0.060456   0.259044  -0.134045  -0.082211  -0.430605
     32      -0.062091   0.055327  -0.020703  -0.100816  -0.029642   0.006771
     33      -0.112631  -0.065287  -0.179893  -0.032452  -0.016768  -0.060418
     34       0.064597  -0.018820   0.135220   0.146347   0.029212   0.044152
     35      -0.077876   0.068121   0.224448  -0.389179  -0.101784  -0.280474
     36       0.086835   0.099951  -0.229662   0.053764   0.027026  -0.053914
     37      -0.015425  -0.004275  -0.132136  -0.002780  -0.017899   0.064531
[...]
     36      -0.323221   0.248816   0.010334   0.333717   0.034213  -0.225186
     37      -0.038939  -0.037482   0.006085   0.001509  -0.005405  -0.007388
     38       0.123673  -0.170857  -0.000344  -0.357997  -0.049202   0.364668
     39      -0.347457   0.278685  -0.001484   0.404515   0.041679  -0.282050
     40       0.075857  -0.135260   0.003975  -0.269280  -0.047636   0.283829
     41      -0.047452   0.024597   0.002592   0.139629   0.012971  -0.158101
     42      -0.020739  -0.030532   0.059385  -0.000659  -0.043272   0.017921
     43       0.075664   0.007384  -0.296901  -0.001871   0.350811   0.055904
     44      -0.042616  -0.100186   0.365132  -0.004348  -0.384086  -0.148351
     45      -0.111779  -0.229032   0.377465  -0.006130  -0.361337  -0.232041
     46       0.256318   0.196946  -0.170628   0.010440   0.131723   0.026316
     47       0.030989  -0.055200   0.025737   0.002208   0.007251  -0.036400
                 36         37         38         39         40         41    
      0      -0.137236  -0.236267  -0.002418   0.007466  -0.014435   0.000199
      1       0.183676   0.119145  -0.001603   0.004689  -0.014192  -0.000693
      2      -0.094503  -0.010001   0.002445  -0.007797   0.019573   0.000829
      3      -0.116801   0.255759  -0.002571  -0.008603  -0.016422   0.000065
      4      -0.145329   0.079750   0.002156   0.006958   0.018024  -0.000903
      5       0.130985  -0.102321  -0.001600  -0.005602  -0.014813   0.001073
      6       0.108971  -0.117202   0.006258   0.027375   0.026613  -0.004417
      7       0.123040  -0.085975   0.004548   0.018719   0.014504  -0.000857
      8      -0.114928   0.095652  -0.007494  -0.031861  -0.025042   0.004161
      9       0.007240   0.175860  -0.040608  -0.007486   0.009689  -0.050686
     10       0.003553  -0.026022  -0.010282  -0.001387   0.002021  -0.009891
     11       0.000782  -0.031619   0.006766   0.001800  -0.000814   0.007023
     12      -0.010705  -0.177854  -0.037978   0.006843   0.008851   0.046333
     13      -0.003564   0.015184   0.019499  -0.002885  -0.004188  -0.020810
     14      -0.000432   0.026316   0.006172  -0.000587  -0.002226  -0.008953
     15       0.118545   0.106267   0.007366  -0.030779   0.029487   0.005245
     16      -0.157598  -0.096725  -0.006341   0.025342  -0.021312  -0.002067
     17       0.084138   0.048424   0.005533  -0.022292   0.016325   0.002715
     18       0.398838   0.153335   0.022116  -0.065972   0.152691   0.005401
     19      -0.135123  -0.145616   0.028242  -0.085926   0.199697   0.006630
     20      -0.056468   0.016347  -0.034747   0.106351  -0.247792  -0.009515
     21       0.399656  -0.213623   0.024450   0.078736   0.175555  -0.008401
     22       0.031052  -0.112109  -0.033012  -0.107586  -0.240203   0.010695
     23      -0.069338   0.076539   0.026586   0.087906   0.197132  -0.009810
     24      -0.324284   0.354546   0.048164   0.206711   0.161552  -0.025260
     25       0.015138  -0.002121  -0.054730  -0.239500  -0.185976   0.028646
     26       0.037024  -0.106241   0.077844   0.335384   0.258658  -0.041658
     27       0.127690  -0.132410  -0.112405  -0.502824  -0.459405   0.078438
     28      -0.193105   0.091808   0.008374   0.040546   0.037773  -0.007367
     29       0.224287  -0.148147   0.003678   0.019112   0.017234  -0.003762
     30      -0.010270  -0.166802   0.233946   0.036148  -0.052310   0.238961
     31      -0.009822   0.123045   0.267997   0.039306  -0.061027   0.273546
     32      -0.019576  -0.165903  -0.396369  -0.059061   0.090206  -0.402011
     33      -0.010062  -0.135667   0.245925   0.034643  -0.062740   0.260498
     34      -0.017327  -0.095167  -0.147709  -0.020808   0.037711  -0.153855
     35       0.004814   0.216307   0.313292   0.043616  -0.079061   0.329324
     36       0.010964   0.128802   0.284699  -0.040605  -0.063703  -0.282285
     37       0.019096   0.087617  -0.331596   0.045419   0.075072   0.329511
     38       0.001268  -0.215625   0.315942  -0.043188  -0.071955  -0.311540
     39       0.009191   0.172347   0.163918  -0.021643  -0.041818  -0.169510
     40       0.006741  -0.132387   0.102504  -0.013425  -0.025971  -0.103238
     41       0.013216   0.165420  -0.385702   0.050056   0.096924   0.395830
     42       0.099337   0.086258  -0.111041   0.475802  -0.443600  -0.076244
     43       0.172313   0.046530   0.017778  -0.073126   0.067448   0.010664
     44      -0.274137  -0.156129   0.033024  -0.138720   0.129561   0.021394
     45      -0.343760  -0.324998   0.033760  -0.139208   0.112065   0.017261
     46       0.066025   0.074567   0.047091  -0.197802   0.156755   0.024454
     47       0.066912   0.002254  -0.094406   0.389024  -0.307531  -0.049848
                 42         43         44         45         46         47    
      0      -0.018389   0.027756   0.000540  -0.002595   0.002601  -0.000184
      1      -0.032227   0.035403   0.000993  -0.003827   0.003320  -0.000188
      2       0.036616  -0.042927  -0.001390   0.004467  -0.003877   0.000192
      3      -0.021839  -0.030467   0.000729   0.003246   0.002511   0.000176
      4       0.037720   0.041225  -0.001175  -0.004887  -0.003410  -0.000209
      5      -0.030921  -0.032573   0.001216   0.003881   0.002556   0.000112
      6      -0.012654  -0.002268   0.015073   0.061626   0.052036   0.005799
      7      -0.013750  -0.008921  -0.006071  -0.025502  -0.023363  -0.002702
      8       0.020931   0.011945   0.007302   0.030577   0.028312   0.003104
      9      -0.002514   0.000585  -0.010824  -0.002038   0.002059   0.011089
     10      -0.000394  -0.000015   0.032466   0.002818  -0.008870  -0.034268
     11      -0.000470  -0.000547  -0.058376  -0.005346   0.015381   0.060935
     12      -0.001887  -0.000718   0.001274   0.000689  -0.001075   0.001351
     13       0.000827   0.000138  -0.031825   0.003771   0.008300  -0.032820
     14       0.001169  -0.000353   0.060659  -0.008098  -0.014567   0.061776
     15      -0.014798   0.003920   0.012501  -0.047636   0.050390  -0.005299
     16       0.016573  -0.009834   0.002708  -0.010672   0.013482  -0.001505
     17      -0.016018   0.011190  -0.011402   0.043765  -0.049399   0.005116
     18       0.252034  -0.298712  -0.007426   0.027430  -0.027016   0.002157
     19       0.338238  -0.390509  -0.009948   0.037285  -0.036416   0.003240
     20      -0.416878   0.486045   0.012542  -0.045361   0.045684  -0.003789
     21       0.294220   0.331957  -0.008800  -0.034463  -0.027250  -0.002294
     22      -0.410512  -0.453332   0.012161   0.048691   0.037765   0.003558
     23       0.337581   0.373293  -0.010251  -0.039736  -0.031882  -0.002856
     24      -0.125601  -0.069164  -0.053931  -0.228137  -0.210101  -0.024115
     25       0.147010   0.081032   0.065843   0.279636   0.253642   0.028538
     26      -0.204102  -0.113020  -0.092055  -0.394703  -0.356404  -0.042643
     27       0.240936   0.068239  -0.123688  -0.500981  -0.411267  -0.045295
     28      -0.019247  -0.003905   0.008370   0.034349   0.027555   0.003179
     29      -0.008765  -0.003082   0.006952   0.027380   0.024497   0.002575
     30       0.011825  -0.003050  -0.191809  -0.013739   0.053616   0.204390
     31       0.014824  -0.003127  -0.210087  -0.015046   0.059277   0.222326
     32      -0.020847   0.004957   0.306330   0.020222  -0.088013  -0.328105
     33       0.019440  -0.000430   0.319211   0.033465  -0.079824  -0.326020
     34      -0.011074   0.001020  -0.179729  -0.019841   0.043803   0.184311
     35       0.024431  -0.000895   0.387512   0.039253  -0.097804  -0.395044
     36       0.012946   0.003730  -0.230295   0.025098   0.061073  -0.240139
     37      -0.016373  -0.003930   0.262364  -0.029128  -0.069452   0.271215
     38       0.015206   0.003899  -0.241545   0.025447   0.065783  -0.252475
     39       0.011917   0.000282   0.214995  -0.030727  -0.048869   0.214904
     40       0.006909   0.000903   0.119917  -0.017591  -0.026409   0.120307
     41      -0.027782  -0.000867  -0.479199   0.065990   0.111291  -0.477459
     42       0.224437  -0.066471  -0.113577   0.430275  -0.446812   0.046127
     43      -0.034664   0.011846   0.018987  -0.071387   0.074814  -0.007576
     44      -0.065866   0.018913   0.030937  -0.118173   0.120388  -0.012526
     45      -0.083256   0.047813  -0.034570   0.133395  -0.156663   0.016197
     46      -0.119358   0.068934  -0.053268   0.209402  -0.238964   0.025147
     47       0.232303  -0.134570   0.102495  -0.405426   0.463761  -0.051412


-----------
IR SPECTRUM
-----------

 Mode   freq       eps      Int      T**2         TX        TY        TZ
       cm**-1   L/(mol*cm) km/mol    a.u.
----------------------------------------------------------------------------
  7:    131.75   0.000155    0.78  0.000367  ( 0.018768 -0.002160 -0.003128)
  8:    201.48   0.000277    1.40  0.000429  ( 0.020318 -0.002396 -0.003288)
  9:    277.73   0.000091    0.46  0.000102  (-0.001998 -0.006669 -0.007307)
 10:    367.57   0.000028    0.14  0.000023  (-0.000986 -0.004011 -0.002528)
 11:    396.32   0.000511    2.58  0.000403  (-0.019675  0.002311  0.003192)
 12:    477.37   0.000004    0.02  0.000003  ( 0.001602 -0.000245 -0.000218)
 13:    582.40   0.000000    0.00  0.000000  (-0.000451  0.000043  0.000029)
 14:    595.58   0.000313    1.58  0.000164  ( 0.002572  0.005898  0.011073)
 15:    679.24   0.005990   30.27  0.002752  ( 0.009936  0.039430  0.033145)
 16:    777.80   0.000120    0.61  0.000048  ( 0.006863 -0.000517 -0.000916)
 17:    807.32   0.000135    0.68  0.000052  (-0.000684  0.003098 -0.006485)
 18:    833.36   0.000100    0.51  0.000038  ( 0.000578  0.006026 -0.000985)
 19:    905.70   0.001352    6.83  0.000466  (-0.021137  0.002544  0.003535)
 20:    939.68   0.003280   16.58  0.001089  ( 0.005833  0.028947  0.014746)
 21:    971.05   0.001290    6.52  0.000415  ( 0.003874  0.014848  0.013383)
 22:    979.41   0.000104    0.52  0.000033  ( 0.005697  0.000775  0.000146)
 23:    989.51   0.008488   42.90  0.002677  (-0.009452 -0.040744 -0.030455)
 24:    994.74   0.000075    0.38  0.000024  ( 0.004778 -0.000511 -0.000721)
 25:   1013.55   0.001569    7.93  0.000483  (-0.021559  0.002454  0.003520)
 26:   1093.79   0.000192    0.97  0.000055  (-0.007248  0.000846  0.001184)
 27:   1101.71   0.000476    2.40  0.000135  (-0.000617 -0.010927  0.003875)
 28:   1222.54   0.000010    0.05  0.000002  (-0.001543  0.000106  0.000298)
 29:   1262.87   0.000153    0.77  0.000038  (-0.006050  0.000583  0.000950)
 30:   1264.41   0.000028    0.14  0.000007  ( 0.000175  0.002428  0.001040)
 31:   1314.08   0.000288    1.45  0.000068  ( 0.000740  0.008144 -0.001221)
 32:   1404.28   0.000442    2.23  0.000098  ( 0.009724 -0.001189 -0.001502)
 33:   1435.78   0.000575    2.91  0.000125  ( 0.010966 -0.001218 -0.001825)
 34:   1473.79   0.002059   10.41  0.000436  (-0.000656  0.014840 -0.014674)
 35:   1547.70   0.000270    1.37  0.000054  (-0.001429 -0.003834 -0.006142)
 36:   1624.64   0.000085    0.43  0.000016  ( 0.003845 -0.000624 -0.001050)
 37:   1627.32   0.000366    1.85  0.000070  (-0.001801 -0.002948 -0.007631)
 38:   3164.81   0.000773    3.90  0.000076  (-0.008549  0.000996  0.001455)
 39:   3170.51   0.001642    8.30  0.000162  (-0.001102  0.006671 -0.010766)
 40:   3172.82   0.000174    0.88  0.000017  ( 0.004068 -0.000436 -0.000614)
 41:   3179.24   0.000269    1.36  0.000026  (-0.000342 -0.004891  0.001529)
 42:   3182.50   0.001576    7.96  0.000155  (-0.012190  0.001517  0.001902)
 43:   3197.70   0.001990   10.06  0.000194  ( 0.000428  0.012131 -0.006847)
 44:   3262.74   0.000041    0.21  0.000004  ( 0.001962 -0.000209 -0.000213)
 45:   3267.96   0.000445    2.25  0.000043  ( 0.001285 -0.002917  0.005687)
 46:   3272.39   0.001254    6.34  0.000120  ( 0.010697 -0.001052 -0.002023)
 47:   3283.16   0.001066    5.39  0.000101  ( 0.000871 -0.004709  0.008854)

* The epsilon (eps) is given for a Dirac delta lineshape.
** The dipole moment derivative (T) already includes vibrational overlap.

The first frequency considered to be a vibration is 7
The total number of vibrations considered is 41


--------------------------
THERMOCHEMISTRY AT 298.15K
--------------------------

Temperature         ... 298.15 K
Pressure            ... 1.00 atm
Total Mass          ... 82.15 AMU

Throughout the following assumptions are being made:
  (1) The electronic state is orbitally nondegenerate
  (2) There are no thermally accessible electronically excited states
  (3) Hindered rotations indicated by low frequency modes are not
      treated as such but are treated as vibrations and this may
      cause some error
  (4) All equations used are the standard statistical mechanics
      equations for an ideal gas
  (5) All vibrations are strictly harmonic

freq.     131.75  E(vib)   ...       0.42 
freq.     201.48  E(vib)   ...       0.35 
freq.     277.73  E(vib)   ...       0.28 
freq.     367.57  E(vib)   ...       0.21 
freq.     396.32  E(vib)   ...       0.20 
freq.     477.37  E(vib)   ...       0.15 
freq.     582.40  E(vib)   ...       0.11 
freq.     595.58  E(vib)   ...       0.10 
freq.     679.24  E(vib)   ...       0.08 
freq.     777.80  E(vib)   ...       0.05 
freq.     807.32  E(vib)   ...       0.05 
freq.     833.36  E(vib)   ...       0.04 
freq.     905.70  E(vib)   ...       0.03 
freq.     939.68  E(vib)   ...       0.03 
freq.     971.05  E(vib)   ...       0.03 
freq.     979.41  E(vib)   ...       0.03 
freq.     989.51  E(vib)   ...       0.02 
freq.     994.74  E(vib)   ...       0.02 
freq.    1013.55  E(vib)   ...       0.02 
freq.    1093.79  E(vib)   ...       0.02 
freq.    1101.71  E(vib)   ...       0.02 
freq.    1222.54  E(vib)   ...       0.01 
freq.    1262.87  E(vib)   ...       0.01 
freq.    1264.41  E(vib)   ...       0.01 
freq.    1314.08  E(vib)   ...       0.01 
freq.    1404.28  E(vib)   ...       0.00 
freq.    1435.78  E(vib)   ...       0.00 
freq.    1473.79  E(vib)   ...       0.00 
freq.    1547.70  E(vib)   ...       0.00 
freq.    1624.64  E(vib)   ...       0.00 
freq.    1627.32  E(vib)   ...       0.00 
freq.    3164.81  E(vib)   ...       0.00 
freq.    3170.51  E(vib)   ...       0.00 
freq.    3172.82  E(vib)   ...       0.00 
freq.    3179.24  E(vib)   ...       0.00 
freq.    3182.50  E(vib)   ...       0.00 
freq.    3197.70  E(vib)   ...       0.00 
freq.    3262.74  E(vib)   ...       0.00 
freq.    3267.96  E(vib)   ...       0.00 
freq.    3272.39  E(vib)   ...       0.00 
freq.    3283.16  E(vib)   ...       0.00 

------------
INNER ENERGY
------------

The inner energy is: U= E(el) + E(ZPE) + E(vib) + E(rot) + E(trans)
    E(el)   - is the total energy from the electronic structure calculation
              = E(kin-el) + E(nuc-el) + E(el-el) + E(nuc-nuc)
    E(ZPE)  - the the zero temperature vibrational energy from the frequency calculation
    E(vib)  - the the finite temperature correction to E(ZPE) due to population
              of excited vibrational states
    E(rot)  - is the rotational thermal energy
    E(trans)- is the translational thermal energy

Summary of contributions to the inner energy U:
Electronic energy                ...   -234.09078482 Eh
Zero point energy                ...      0.13998951 Eh      87.84 kcal/mol
Thermal vibrational correction   ...      0.00368638 Eh       2.31 kcal/mol
Thermal rotational correction    ...      0.00141627 Eh       0.89 kcal/mol
Thermal translational correction ...      0.00141627 Eh       0.89 kcal/mol
-----------------------------------------------------------------------
Total thermal energy                   -233.94427639 Eh


Summary of corrections to the electronic energy:
(perhaps to be used in another calculation)
Total thermal correction                  0.00651893 Eh       4.09 kcal/mol
Non-thermal (ZPE) correction              0.13998951 Eh      87.84 kcal/mol
-----------------------------------------------------------------------
Total correction                          0.14650843 Eh      91.94 kcal/mol


--------
ENTHALPY
--------

The enthalpy is H = U + kB*T
                kB is Boltzmann's constant
Total free energy                 ...   -233.94427639 Eh 
Thermal Enthalpy correction       ...      0.00094421 Eh       0.59 kcal/mol
-----------------------------------------------------------------------
Total Enthalpy                    ...   -233.94333218 Eh


Note: Only C1 symmetry has been detected, increase convergence thresholds 
      if your molecule has a higher symmetry. Symmetry factor of 1.0 is   
      used for the rotational entropy correction. 
 

Note: Rotational entropy computed according to Herzberg 
Infrared and Raman Spectra, Chapter V,1, Van Nostrand Reinhold, 1945 
Point Group:  C1, Symmetry Number:   1  
Rotational constants in cm-1:     0.144521     0.114617     0.075185 

Vibrational entropy computed according to the QRRHO of S. Grimme
Chem.Eur.J. 2012 18 9955


-------
ENTROPY
-------

The entropy contributions are T*S = T*(S(el)+S(vib)+S(rot)+S(trans))
     S(el)   - electronic entropy
     S(vib)  - vibrational entropy
     S(rot)  - rotational entropy
     S(trans)- translational entropy
The entropies will be listed as multiplied by the temperature to get
units of energy

Electronic entropy                ...      0.00000000 Eh      0.00 kcal/mol
Vibrational entropy               ...      0.00581932 Eh      3.65 kcal/mol
Rotational entropy                ...      0.01266829 Eh      7.95 kcal/mol
Translational entropy             ...      0.01859270 Eh     11.67 kcal/mol
-----------------------------------------------------------------------
Final entropy term                ...      0.03708031 Eh     23.27 kcal/mol

In case the symmetry of your molecule has not been determined correctly
or in case you have a reason to use a different symmetry number we print 
out the resulting rotational entropy values for sn=1,12 :
 --------------------------------------------------------
|  sn= 1 | S(rot)=       0.01266829 Eh      7.95 kcal/mol|
|  sn= 2 | S(rot)=       0.01201383 Eh      7.54 kcal/mol|
|  sn= 3 | S(rot)=       0.01163100 Eh      7.30 kcal/mol|
|  sn= 4 | S(rot)=       0.01135938 Eh      7.13 kcal/mol|
|  sn= 5 | S(rot)=       0.01114869 Eh      7.00 kcal/mol|
|  sn= 6 | S(rot)=       0.01097655 Eh      6.89 kcal/mol|
|  sn= 7 | S(rot)=       0.01083100 Eh      6.80 kcal/mol|
|  sn= 8 | S(rot)=       0.01070492 Eh      6.72 kcal/mol|
|  sn= 9 | S(rot)=       0.01059371 Eh      6.65 kcal/mol|
|  sn=10 | S(rot)=       0.01049423 Eh      6.59 kcal/mol|
|  sn=11 | S(rot)=       0.01040424 Eh      6.53 kcal/mol|
|  sn=12 | S(rot)=       0.01032209 Eh      6.48 kcal/mol|
 --------------------------------------------------------


-------------------
GIBBS FREE ENERGY
-------------------

The Gibbs free energy is G = H - T*S

Total enthalpy                    ...   -233.94333218 Eh 
Total entropy correction          ...     -0.03708031 Eh    -23.27 kcal/mol
-----------------------------------------------------------------------
Final Gibbs free energy         ...   -233.98041249 Eh

For completeness - the Gibbs free energy minus the electronic energy
G-E(el)                           ...      0.11037233 Eh     69.26 kcal/mol


Timings for individual modules:

Sum of individual times         ...     5773.772 sec (=  96.230 min)
GTO integral calculation        ...       14.525 sec (=   0.242 min)   0.3 %
SCF iterations                  ...     2979.216 sec (=  49.654 min)  51.6 %
SCF Gradient evaluation         ...     1118.946 sec (=  18.649 min)  19.4 %
Geometry relaxation             ...        3.478 sec (=   0.058 min)   0.1 %
Analytical frequency calculation...     1657.607 sec (=  27.627 min)  28.7 %
                             ****ORCA TERMINATED NORMALLY****
TOTAL RUN TIME: 0 days 1 hours 36 minutes 26 seconds 587 msec
