      -----------------------------------------------------------      
     |                   =====================                   |     
     |                           x T B                           |     
     |                   =====================                   |     
     |                         S. Grimme                         |     
     |          Mulliken Center for Theoretical Chemistry        |     
     |                    University of Bonn                     |     
      -----------------------------------------------------------      

   * xtb version 6.6.1 (8d0f1dd) compiled by 'conda@1efc2f54142f' on 2023-08-01

   xtb is free software: you can redistribute it and/or modify it under
   the terms of the GNU Lesser General Public License as published by
   the Free Software Foundation, either version 3 of the License, or
   (at your option) any later version.
   
   xtb is distributed in the hope that it will be useful,
   but WITHOUT ANY WARRANTY; without even the implied warranty of
   MERCHANTABILITY or FITNESS FOR A PARTICULAR PURPOSE.  See the
   GNU Lesser General Public License for more details.
   
   Cite this work as:
   * C. Bannwarth, E. Caldeweyher, S. Ehlert, A. Hansen, P. Pracht,
     J. Seibert, S. Spicher, S. Grimme, WIREs Comput. Mol. Sci., 2020, 11,
     e01493. DOI: 10.1002/wcms.1493
   
   for GFN2-xTB:
   * C. Bannwarth, S. Ehlert and S. Grimme., J. Chem. Theory Comput., 2019,
     15, 1652-1671. DOI: 10.1021/acs.jctc.8b01176
   for GFN1-xTB:
   * S. Grimme, C. Bannwarth, P. Shushkov, J. Chem. Theory Comput., 2017,
     13, 1989-2009. DOI: 10.1021/acs.jctc.7b00118
   for GFN0-xTB:
   * P. Pracht, E. Caldeweyher, S. Ehlert, S. Grimme, ChemRxiv, 2019, preprint.
     DOI: 10.26434/chemrxiv.8326202.v1
   for GFN-FF:
   * S. Spicher and S. Grimme, Angew. Chem. Int. Ed., 2020, 59, 15665-15673.
     DOI: 10.1002/anie.202004239
   
   for ALPB and GBSA implicit solvation:
   * S. Ehlert, M. Stahn, S. Spicher, S. Grimme, J. Chem. Theory Comput.,
     2021, 17, 4250-4261. DOI: 10.1021/acs.jctc.1c00471
   
   for DFT-D4:
   * E. Caldeweyher, C. Bannwarth and S. Grimme, J. Chem. Phys., 2017,
     147, 034112. DOI: 10.1063/1.4993215
   * E. Caldeweyher, S. Ehlert, A. Hansen, H. Neugebauer, S. Spicher,
     C. Bannwarth and S. Grimme, J. Chem. Phys., 2019, 150, 154122.
     DOI: 10.1063/1.5090222
   * E. Caldeweyher, J.-M. Mewes, S. Ehlert and S. Grimme, Phys. Chem. Chem. Phys.
     2020, 22, 8499-8512. DOI: 10.1039/D0CP00502A
   
   for sTDA-xTB:
   * S. Grimme and C. Bannwarth, J. Chem. Phys., 2016, 145, 054103.
     DOI: 10.1063/1.4959605
   
   in the mass-spec context:
   * V. Asgeirsson, C. Bauer and S. Grimme, Chem. Sci., 2017, 8, 4879.
     DOI: 10.1039/c7sc00601b
   * J. Koopman and S. Grimme, ACS Omega 2019, 4, 12, 15120-15133.
     DOI: 10.1021/acsomega.9b02011
   
   for metadynamics refer to:
   * S. Grimme, J. Chem. Theory Comput., 2019, 155, 2847-2862
     DOI: 10.1021/acs.jctc.9b00143
   
   for SPH calculations refer to:
   * S. Spicher and S. Grimme, J. Chem. Theory Comput., 2021, 17, 1701-1714
     DOI: 10.1021/acs.jctc.0c01306
   
   with help from (in alphabetical order)
   P. Atkinson, C. Bannwarth, F. Bohle, G. Brandenburg, E. Caldeweyher
   M. Checinski, S. Dohm, S. Ehlert, S. Ehrlich, I. Gerasimov, C. Hölzer
   A. Katbashev, J. Koopman, C. Lavigne, S. Lehtola, F. März, M. Müller,
   F. Musil, H. Neugebauer, J. Pisarek, C. Plett, P. Pracht, F. Pultar,
   J. Seibert, P. Shushkov, S. Spicher, M. Stahn, M. Steiner, T. Strunk,
   J. Stückrath, T. Rose, and J. Unsleber
   
 * started run on 2025/05/23 at 11:18:31.512     

           -------------------------------------------------
          |                Calculation Setup                |
           -------------------------------------------------

          program call               : /home/avcopan/code/other/saddle-search-practice/.pixi/envs/default/bin/xtb path_opt10_xtb.xyz --chrg 0 --uhf 0 --opt --input xcontrol_path_opt10_xtb
          coordinate file            : path_opt10_xtb.xyz
          omp threads                :                     1

   ID    Z sym.   atoms
    1    6 C      1-6
    2    1 H      7-16
constraining bond 3 4 to    2.1203000 Å, actual value:    2.0702429 Å
constraining bond 5 6 to    2.1204000 Å, actual value:    2.0703638 Å

molecular fragmentation (1/2 indicates fragments):
1112211111222211
# atoms in fragment 1/2:    10     6
 fragment masses (1/2) :       54.09       28.05
CMA distance (Bohr)    :   4.529
constraining FC (au)   :  2.0000

           -------------------------------------------------
          |                 G F N 2 - x T B                 |
           -------------------------------------------------

        Reference                      10.1021/acs.jctc.8b01176
      * Hamiltonian:
        H0-scaling (s, p, d)           1.850000    2.230000    2.230000
        zeta-weighting                 0.500000
      * Dispersion:
        s8                             2.700000
        a1                             0.520000
        a2                             5.000000
        s9                             5.000000
      * Repulsion:
        kExp                           1.500000    1.000000
        rExp                           1.000000
      * Coulomb:
        alpha                          2.000000
        third order                    shell-resolved
        anisotropic                    true
        a3                             3.000000
        a5                             4.000000
        cn-shift                       1.200000
        cn-exp                         4.000000
        max-rad                        5.000000


          ...................................................
          :                      SETUP                      :
          :.................................................:
          :  # basis functions                  34          :
          :  # atomic orbitals                  34          :
          :  # shells                           22          :
          :  # electrons                        34          :
          :  max. iterations                   250          :
          :  Hamiltonian                  GFN2-xTB          :
          :  restarted?                      false          :
          :  GBSA solvation                  false          :
          :  PC potential                    false          :
          :  electronic temp.          300.0000000     K    :
          :  accuracy                    1.0000000          :
          :  -> integral cutoff          0.2500000E+02      :
          :  -> integral neglect         0.1000000E-07      :
          :  -> SCF convergence          0.1000000E-05 Eh   :
          :  -> wf. convergence          0.1000000E-03 e    :
          :  Broyden damping             0.4000000          :
          ...................................................

 iter      E             dE          RMSdq      gap      omega  full diag
   1    -18.0570643 -0.180571E+02  0.334E+00    3.83       0.0  T
   2    -18.0835269 -0.264627E-01  0.188E+00    3.80       1.0  T
   3    -18.0776533  0.587368E-02  0.941E-01    3.82       1.0  T
   4    -18.0803277 -0.267446E-02  0.603E-01    3.82       1.0  T
   5    -18.0856288 -0.530107E-02  0.621E-02    3.82       1.0  T
   6    -18.0856300 -0.118157E-05  0.181E-02    3.82       1.4  T
   7    -18.0856301 -0.147226E-06  0.370E-03    3.82       6.8  T
   8    -18.0856302 -0.556096E-07  0.253E-03    3.82       9.9  T
   9    -18.0856302 -0.587545E-07  0.762E-04    3.82      32.8  T
  10    -18.0856302 -0.332059E-08  0.335E-04    3.82      74.7  T

   *** convergence criteria satisfied after 10 iterations ***

         #    Occupation            Energy/Eh            Energy/eV
      -------------------------------------------------------------
         1        2.0000           -0.6137345             -16.7006
       ...           ...                  ...                  ...
        11        2.0000           -0.4675086             -12.7216
        12        2.0000           -0.4598489             -12.5131
        13        2.0000           -0.4420813             -12.0296
        14        2.0000           -0.4377324             -11.9113
        15        2.0000           -0.3943007             -10.7295
        16        2.0000           -0.3841062             -10.4521
        17        2.0000           -0.3622470              -9.8572 (HOMO)
        18                         -0.2220078              -6.0411 (LUMO)
        19                         -0.1838868              -5.0038
        20                         -0.1756049              -4.7785
        21                          0.1151648               3.1338
        22                          0.1329624               3.6181
       ...                                ...                  ...
        34                          0.6493666              17.6702
      -------------------------------------------------------------
                  HL-Gap            0.1402392 Eh            3.8161 eV
             Fermi-level           -0.2921274 Eh           -7.9492 eV

 SCC (total)                   0 d,  0 h,  0 min,  0.009 sec
 SCC setup                      ...        0 min,  0.000 sec (  1.508%)
 Dispersion                     ...        0 min,  0.000 sec (  1.116%)
 classical contributions        ...        0 min,  0.000 sec (  0.301%)
 integral evaluation            ...        0 min,  0.001 sec ( 11.791%)
 iterations                     ...        0 min,  0.004 sec ( 49.321%)
 molecular gradient             ...        0 min,  0.003 sec ( 33.627%)
 printout                       ...        0 min,  0.000 sec (  2.154%)

         :::::::::::::::::::::::::::::::::::::::::::::::::::::
         ::                     SUMMARY                     ::
         :::::::::::::::::::::::::::::::::::::::::::::::::::::
         :: total energy             -17.760444338828 Eh    ::
         :: gradient norm              0.589935063886 Eh/a0 ::
         :: HOMO-LUMO gap              3.816103421090 eV    ::
         ::.................................................::
         :: SCC energy               -18.085630233207 Eh    ::
         :: -> isotropic ES            0.002660277884 Eh    ::
         :: -> anisotropic ES          0.007619957320 Eh    ::
         :: -> anisotropic XC          0.013546265899 Eh    ::
         :: -> dispersion             -0.010728068993 Eh    ::
         :: repulsion energy           0.289376508941 Eh    ::
         :: add. restraining           0.035777245372 Eh    ::
         :: total charge               0.000000000000 e     ::
         :::::::::::::::::::::::::::::::::::::::::::::::::::::

      ----------------------------------------------------------- 
     |                   =====================                   |
     |                        A N C O P T                        |
     |                   =====================                   |
     |               Approximate Normal Coordinate               |
     |                Rational Function Optimizer                |
      ----------------------------------------------------------- 

          ...................................................
          :                      SETUP                      :
          :.................................................:
          :   optimization level            normal          :
          :   max. optcycles                   200          :
          :   ANC micro-cycles                  20          :
          :   degrees of freedom                42          :
          :.................................................:
          :   RF solver                   davidson          :
          :   write xtbopt.log                true          :
          :   linear?                        false          :
          :   energy convergence         0.5000000E-05 Eh   :
          :   grad. convergence          0.1000000E-02 Eh/α :
          :   maxmium RF displ.          1.0000000          :
          :   Hlow (freq-cutoff)         0.1000000E-01      :
          :   Hmax (freq-cutoff)         5.0000000          :
          :   S6 in model hess.         20.0000000          :
          ...................................................

generating ANC from model Hessian ...
Using Lindh-Hessian (1995)
 Shifting diagonal of input Hessian by    6.3017785971133444E-002
 Lowest  eigenvalues of input Hessian
    0.010000    0.023017    0.030253    0.058636    0.000000    0.000000
    0.000000    0.000000    0.000000    0.000000    0.068382    0.072864
    0.075086    0.083437    0.083854    0.089057    0.089504    0.090510
 Highest eigenvalues
    1.246454    1.372429    1.556055    2.004940    8.382974    8.398552


........................................................................
.............................. CYCLE    1 ..............................
........................................................................

 iter      E             dE          RMSdq      gap      omega  full diag
   1    -18.0856302 -0.180856E+02  0.905E-05    3.82       0.0  T
   2    -18.0856302 -0.103029E-12  0.536E-05    3.82     466.3  T
   3    -18.0856302  0.159197E-10  0.501E-05    3.82     499.4  T
     SCC iter.                  ...        0 min,  0.002 sec
     gradient                   ...        0 min,  0.003 sec
 * total energy  :   -17.7604443 Eh     change       -0.1053294E-08 Eh
   gradient norm :     0.5899352 Eh/α   predicted     0.0000000E+00 (-100.00%)
   displ. norm   :     0.1241939 α      lambda       -0.6919887E-01
   maximum displ.:     0.1163050 α      in ANC's #41, #27, #10, ...

........................................................................
.............................. CYCLE    2 ..............................
........................................................................

 iter      E             dE          RMSdq      gap      omega  full diag
   1    -18.0729669 -0.180730E+02  0.159E-01    3.27       0.0  T
   2    -18.0729877 -0.207111E-04  0.915E-02    3.27       1.0  T
   3    -18.0729743  0.133633E-04  0.323E-02    3.27       1.0  T
   4    -18.0729800 -0.569521E-05  0.239E-02    3.28       1.0  T
   5    -18.0729892 -0.920262E-05  0.125E-03    3.28      20.0  T
   6    -18.0729892 -0.156562E-08  0.615E-04    3.28      40.7  T
   7    -18.0729892 -0.256904E-09  0.149E-04    3.28     167.4  T
     SCC iter.                  ...        0 min,  0.003 sec
     gradient                   ...        0 min,  0.004 sec
 * total energy  :   -17.7746937 Eh     change       -0.1424940E-01 Eh
   gradient norm :     0.3483511 Eh/α   predicted    -0.3513311E-01 ( 146.56%)
   displ. norm   :     0.0457684 α      lambda       -0.1509510E-01
   maximum displ.:     0.0431372 α      in ANC's #41, #8, #9, ...

........................................................................
.............................. CYCLE    3 ..............................
........................................................................

 iter      E             dE          RMSdq      gap      omega  full diag
   1    -18.0758082 -0.180758E+02  0.751E-02    3.47       0.0  T
   2    -18.0758123 -0.411987E-05  0.435E-02    3.47       1.0  T
   3    -18.0758028  0.953313E-05  0.256E-02    3.47       1.0  T
   4    -18.0758124 -0.964289E-05  0.865E-03    3.47       2.9  T
   5    -18.0758134 -0.997222E-06  0.509E-04    3.47      49.1  T
   6    -18.0758134 -0.458826E-09  0.259E-04    3.47      96.5  T
     SCC iter.                  ...        0 min,  0.002 sec
     gradient                   ...        0 min,  0.003 sec
 * total energy  :   -17.7822904 Eh     change       -0.7596701E-02 Eh
   gradient norm :     0.0028229 Eh/α   predicted    -0.7563363E-02 (  -0.44%)
   displ. norm   :     0.0215927 α      lambda       -0.3666237E-04
   maximum displ.:     0.0120949 α      in ANC's #2, #8, #4, ...

........................................................................
.............................. CYCLE    4 ..............................
........................................................................

 iter      E             dE          RMSdq      gap      omega  full diag
   1    -18.0752455 -0.180752E+02  0.213E-02    3.47       0.0  T
   2    -18.0752455 -0.400701E-07  0.124E-02    3.47       2.0  T
   3    -18.0752454  0.641477E-07  0.209E-03    3.47      11.9  T
   4    -18.0752455 -0.581666E-07  0.922E-04    3.47      27.1  T
   5    -18.0752455 -0.141564E-07  0.173E-04    3.47     144.4  T
     SCC iter.                  ...        0 min,  0.004 sec
     gradient                   ...        0 min,  0.003 sec
 * total energy  :   -17.7823176 Eh     change       -0.2713348E-04 Eh
   gradient norm :     0.0016009 Eh/α   predicted    -0.1833832E-04 ( -32.41%)
   displ. norm   :     0.0534760 α      lambda       -0.4214288E-04
   maximum displ.:     0.0393917 α      in ANC's #8, #10, #4, ...

........................................................................
.............................. CYCLE    5 ..............................
........................................................................

 iter      E             dE          RMSdq      gap      omega  full diag
   1    -18.0733848 -0.180734E+02  0.579E-02    3.46       0.0  T
   2    -18.0733848 -0.376313E-07  0.338E-02    3.46       1.0  T
   3    -18.0733752  0.966394E-05  0.249E-02    3.46       1.0  T
   4    -18.0733857 -0.105145E-04  0.112E-03    3.46      22.3  T
   5    -18.0733857 -0.844054E-08  0.418E-04    3.46      59.8  T
   6    -18.0733857  0.378755E-10  0.167E-04    3.46     150.0  T
     SCC iter.                  ...        0 min,  0.002 sec
     gradient                   ...        0 min,  0.004 sec
 * total energy  :   -17.7823187 Eh     change       -0.1104422E-05 Eh
   gradient norm :     0.0035172 Eh/α   predicted    -0.2109890E-04 (1810.40%)
   displ. norm   :     0.0267464 α      lambda       -0.3254058E-04
   maximum displ.:     0.0222586 α      in ANC's #1, #2, #4, ...

........................................................................
.............................. CYCLE    6 ..............................
........................................................................

 iter      E             dE          RMSdq      gap      omega  full diag
   1    -18.0739725 -0.180740E+02  0.295E-02    3.46       0.0  T
   2    -18.0739724  0.650123E-07  0.176E-02    3.46       1.4  T
   3    -18.0739691  0.323788E-05  0.150E-02    3.46       1.7  T
   4    -18.0739727 -0.359304E-05  0.669E-04    3.46      37.4  T
   5    -18.0739727 -0.341957E-08  0.321E-04    3.46      78.0  T
   6    -18.0739727 -0.484189E-09  0.172E-04    3.46     145.8  T
     SCC iter.                  ...        0 min,  0.003 sec
     gradient                   ...        0 min,  0.004 sec
 * total energy  :   -17.7823323 Eh     change       -0.1363830E-04 Eh
   gradient norm :     0.0018218 Eh/α   predicted    -0.1628171E-04 (  19.38%)
   displ. norm   :     0.0605546 α      lambda       -0.3797594E-04
   maximum displ.:     0.0398706 α      in ANC's #1, #2, #8, ...

........................................................................
.............................. CYCLE    7 ..............................
........................................................................

 iter      E             dE          RMSdq      gap      omega  full diag
   1    -18.0760003 -0.180760E+02  0.705E-02    3.46       0.0  T
   2    -18.0760000  0.340702E-06  0.421E-02    3.46       1.0  T
   3    -18.0759822  0.177963E-04  0.361E-02    3.46       1.0  T
   4    -18.0760020 -0.198191E-04  0.148E-03    3.46      16.9  T
   5    -18.0760020 -0.162128E-07  0.699E-04    3.46      35.8  T
   6    -18.0760020 -0.185746E-08  0.399E-04    3.46      62.6  T
     SCC iter.                  ...        0 min,  0.002 sec
     gradient                   ...        0 min,  0.003 sec
 * total energy  :   -17.7822827 Eh     change        0.4959185E-04 Eh
   gradient norm :     0.0067756 Eh/α   predicted    -0.1901995E-04 (-138.35%)
   displ. norm   :     0.0290127 α      lambda       -0.8157331E-04
   maximum displ.:     0.0191339 α      in ANC's #1, #2, #8, ...

........................................................................
.............................. CYCLE    8 ..............................
........................................................................

 iter      E             dE          RMSdq      gap      omega  full diag
   1    -18.0752909 -0.180753E+02  0.361E-02    3.46       0.0  T
   2    -18.0752908  0.787648E-07  0.215E-02    3.46       1.2  T
   3    -18.0752866  0.419411E-05  0.172E-02    3.46       1.5  T
   4    -18.0752912 -0.458679E-05  0.634E-04    3.46      39.4  T
   5    -18.0752912 -0.280202E-08  0.325E-04    3.46      77.0  T
   6    -18.0752912 -0.357879E-09  0.183E-04    3.46     136.4  T
     SCC iter.                  ...        0 min,  0.002 sec
     gradient                   ...        0 min,  0.003 sec
 * total energy  :   -17.7823369 Eh     change       -0.5414539E-04 Eh
   gradient norm :     0.0020133 Eh/α   predicted    -0.4082284E-04 ( -24.61%)
   displ. norm   :     0.0191287 α      lambda       -0.1710677E-04
   maximum displ.:     0.0124068 α      in ANC's #1, #8, #10, ...

........................................................................
.............................. CYCLE    9 ..............................
........................................................................

 iter      E             dE          RMSdq      gap      omega  full diag
   1    -18.0747053 -0.180747E+02  0.205E-02    3.46       0.0  T
   2    -18.0747053  0.133448E-07  0.121E-02    3.46       2.1  T
   3    -18.0747039  0.132126E-05  0.970E-03    3.46       2.6  T
   4    -18.0747054 -0.144930E-05  0.417E-04    3.46      59.9  T
   5    -18.0747054 -0.122655E-08  0.204E-04    3.46     122.5  T
   6    -18.0747054 -0.140634E-09  0.115E-04    3.46     218.1  T
     SCC iter.                  ...        0 min,  0.003 sec
     gradient                   ...        0 min,  0.003 sec
 * total energy  :   -17.7823461 Eh     change       -0.9229822E-05 Eh
   gradient norm :     0.0006622 Eh/α   predicted    -0.8557660E-05 (  -7.28%)
   displ. norm   :     0.0107149 α      lambda       -0.2136022E-05
   maximum displ.:     0.0053816 α      in ANC's #8, #6, #2, ...

........................................................................
.............................. CYCLE   10 ..............................
........................................................................

 iter      E             dE          RMSdq      gap      omega  full diag
   1    -18.0747218 -0.180747E+02  0.590E-03    3.45       0.0  T
   2    -18.0747218 -0.150011E-08  0.350E-03    3.45       7.1  T
   3    -18.0747218  0.157623E-07  0.996E-04    3.45      25.1  T
   4    -18.0747218 -0.167707E-07  0.152E-04    3.45     164.0  T
     SCC iter.                  ...        0 min,  0.002 sec
     gradient                   ...        0 min,  0.003 sec
 * total energy  :   -17.7823489 Eh     change       -0.2803032E-05 Eh
   gradient norm :     0.0007303 Eh/α   predicted    -0.1069029E-05 ( -61.86%)
   displ. norm   :     0.0870457 α      lambda       -0.1472633E-04
   maximum displ.:     0.0489540 α      in ANC's #2, #8, #6, ...

   *** GEOMETRY OPTIMIZATION CONVERGED AFTER 10 ITERATIONS ***

------------------------------------------------------------------------
 total energy gain   :        -0.0219046 Eh      -13.7453 kcal/mol
 total RMSD          :         0.0338604 a0        0.0179 Å
 total power (kW/mol):        -5.7510435 (step) -743.3075 (real)
------------------------------------------------------------------------

 ANCopt (total)                0 d,  0 h,  0 min,  0.077 sec
 optimizer setup                ...        0 min,  0.000 sec (  0.114%)
 model hessian                  ...        0 min,  0.005 sec (  6.378%)
 ANC generation                 ...        0 min,  0.000 sec (  0.381%)
 coordinate transformation      ...        0 min,  0.000 sec (  0.098%)
 single point calculation       ...        0 min,  0.069 sec ( 88.533%)
 optimization log               ...        0 min,  0.001 sec (  1.234%)
 hessian update                 ...        0 min,  0.000 sec (  0.137%)
 rational function              ...        0 min,  0.001 sec (  1.555%)

================
 final structure:
================
16
 xtb: 6.6.1 (8d0f1dd)
C           -0.90753937443359       -1.36551530289240       -0.20013779980172
C            0.40018333893529       -1.57935780080718       -0.27054968078541
C            1.51051799091776       -0.63024289565389       -0.13962703482232
C            0.82611119312779        1.36423300994457       -0.20262756269914
C           -0.34725670311586        1.42470774096488        0.65999901109019
C           -1.63814495878151       -0.11142796302486        0.00854071705920
H           -1.56321003838261       -2.22542572301728       -0.31997667608505
H            0.73268681839678       -2.60204047607643       -0.43597677258102
H            2.20625781074753       -0.63521031941077       -0.96730685224339
H            2.00418505773357       -0.64778673877784        0.82357598617278
H            0.65187621294639        1.52951543202223       -1.25529874599648
H            1.72397915982598        1.84016526285007        0.17031030044659
H           -1.01863759707163        2.25889399265190        0.50153804493827
H           -0.18585636823398        1.18709514873547        1.70058875983182
H           -2.35285006620796       -0.13887504366073        0.81970495501646
H           -2.04224247640396        0.33118167615226       -0.89251664954078

 Bond Distances (Angstroems)
 ---------------------------
C1-C2=1.3270         C1-C6=1.4663         C1-H7=1.0880         C2-C1=1.3270         C2-C3=1.4666         C2-H8=1.0880         
C3-C2=1.4666         C3-H9=1.0813         C3-H10=1.0825        C4-C5=1.4576         C4-H11=1.0797        C4-H12=1.0825        
C5-C4=1.4576         C5-H13=1.0825        C5-H14=1.0795        C6-C1=1.4663         C6-H15=1.0815        C6-H16=1.0822        
H7-C1=1.0880         H8-C2=1.0880         H9-C3=1.0813         H10-C3=1.0825        H11-C4=1.0797        H12-C4=1.0825        
H13-C5=1.0825        H14-C5=1.0795        H15-C6=1.0815        H16-C6=1.0822        
 C  H  Rav=1.0828 sigma=0.0028  Rmin=1.0795  Rmax=1.0880    10
 C  C  Rav=1.4294 sigma=0.0592  Rmin=1.3270  Rmax=1.4666     4

 selected bond angles (degree)
 --------------------
C6-C1-C2=129.53                H7-C1-C2=117.43                H7-C1-C6=113.04                C3-C2-C1=129.58                
H8-C2-C1=117.43                H8-C2-C3=112.99                H9-C3-C2=114.57                H10-C3-C2=114.47               
H10-C3-H9=112.81               H11-C4-C5=116.15               H12-C4-C5=116.46               H12-C4-H11=113.73              
H13-C5-C4=116.40               H14-C5-C4=116.17               H14-C5-H13=113.80              H15-C6-C1=114.48               
H16-C6-C1=114.67               H16-C6-H15=112.84              

 selected dihedral angles (degree)
 ---------------------------------
C3-C2-C1-C6=  1.10            C3-C2-C1-H7=180.47            H8-C2-C1-C6=180.18            H8-C2-C1-H7=359.54            
H9-C3-C2-C1=234.15            H9-C3-C2-H8= 55.04            H10-C3-C2-C1=101.59           H10-C3-C2-H8=282.48           
H13-C5-C4-H11=313.82          H13-C5-C4-H12= 92.00          H14-C5-C4-H11=175.60          H14-C5-C4-H12=313.77          
H15-C6-C1-C2=232.92           H15-C6-C1-H7= 53.53           H16-C6-C1-C2=100.20           H16-C6-C1-H7=280.81           

 CMA Distance (Angstroems)
 ---------------------------
R(CMA):  2.4336
           -------------------------------------------------
          |                Final Singlepoint                |
           -------------------------------------------------

          ...................................................
          :                      SETUP                      :
          :.................................................:
          :  # basis functions                  34          :
          :  # atomic orbitals                  34          :
          :  # shells                           22          :
          :  # electrons                        34          :
          :  max. iterations                   250          :
          :  Hamiltonian                  GFN2-xTB          :
          :  restarted?                      false          :
          :  GBSA solvation                  false          :
          :  PC potential                    false          :
          :  electronic temp.          300.0000000     K    :
          :  accuracy                    1.0000000          :
          :  -> integral cutoff          0.2500000E+02      :
          :  -> integral neglect         0.1000000E-07      :
          :  -> SCF convergence          0.1000000E-05 Eh   :
          :  -> wf. convergence          0.1000000E-03 e    :
          :  Broyden damping             0.4000000          :
          ...................................................

 iter      E             dE          RMSdq      gap      omega  full diag
   1    -18.0747218 -0.180747E+02  0.668E-05    3.45       0.0  T
   2    -18.0747218 -0.395062E-11  0.452E-05    3.45     553.5  T
   3    -18.0747218 -0.113509E-10  0.257E-05    3.45     971.8  T

   *** convergence criteria satisfied after 3 iterations ***

         #    Occupation            Energy/Eh            Energy/eV
      -------------------------------------------------------------
         1        2.0000           -0.6136336             -16.6978
       ...           ...                  ...                  ...
        11        2.0000           -0.4673938             -12.7184
        12        2.0000           -0.4592876             -12.4979
        13        2.0000           -0.4423638             -12.0373
        14        2.0000           -0.4373302             -11.9004
        15        2.0000           -0.3926472             -10.6845
        16        2.0000           -0.3836980             -10.4410
        17        2.0000           -0.3577606              -9.7352 (HOMO)
        18                         -0.2308229              -6.2810 (LUMO)
        19                         -0.1857360              -5.0541
        20                         -0.1829693              -4.9788
        21                          0.1152158               3.1352
        22                          0.1324618               3.6045
       ...                                ...                  ...
        34                          0.6494835              17.6733
      -------------------------------------------------------------
                  HL-Gap            0.1269377 Eh            3.4541 eV
             Fermi-level           -0.2942917 Eh           -8.0081 eV

 SCC (total)                   0 d,  0 h,  0 min,  0.006 sec
 SCC setup                      ...        0 min,  0.000 sec (  3.236%)
 Dispersion                     ...        0 min,  0.000 sec (  1.398%)
 classical contributions        ...        0 min,  0.000 sec (  0.620%)
 integral evaluation            ...        0 min,  0.001 sec ( 21.834%)
 iterations                     ...        0 min,  0.002 sec ( 26.896%)
 molecular gradient             ...        0 min,  0.003 sec ( 43.538%)
 printout                       ...        0 min,  0.000 sec (  2.132%)

         :::::::::::::::::::::::::::::::::::::::::::::::::::::
         ::                     SUMMARY                     ::
         :::::::::::::::::::::::::::::::::::::::::::::::::::::
         :: total energy             -17.782348906997 Eh    ::
         :: gradient norm              0.000730462708 Eh/a0 ::
         :: HOMO-LUMO gap              3.454149742959 eV    ::
         ::.................................................::
         :: SCC energy               -18.074721830626 Eh    ::
         :: -> isotropic ES            0.002710655804 Eh    ::
         :: -> anisotropic ES          0.007705905758 Eh    ::
         :: -> anisotropic XC          0.013698461275 Eh    ::
         :: -> dispersion             -0.010724012556 Eh    ::
         :: repulsion energy           0.290688975568 Eh    ::
         :: add. restraining           0.001650862877 Eh    ::
         :: total charge              -0.000000000000 e     ::
         :::::::::::::::::::::::::::::::::::::::::::::::::::::

           -------------------------------------------------
          |                Property Printout                |
           -------------------------------------------------

    * Orbital Energies and Occupations

         #    Occupation            Energy/Eh            Energy/eV
      -------------------------------------------------------------
         1        2.0000           -0.6136336             -16.6978
       ...           ...                  ...                  ...
         5        2.0000           -0.5467725             -14.8784
         6        2.0000           -0.5176426             -14.0858
         7        2.0000           -0.5051843             -13.7468
         8        2.0000           -0.4918282             -13.3833
         9        2.0000           -0.4763336             -12.9617
        10        2.0000           -0.4723732             -12.8539
        11        2.0000           -0.4673938             -12.7184
        12        2.0000           -0.4592876             -12.4979
        13        2.0000           -0.4423638             -12.0373
        14        2.0000           -0.4373302             -11.9004
        15        2.0000           -0.3926472             -10.6845
        16        2.0000           -0.3836980             -10.4410
        17        2.0000           -0.3577606              -9.7352 (HOMO)
        18                         -0.2308229              -6.2810 (LUMO)
        19                         -0.1857360              -5.0541
        20                         -0.1829693              -4.9788
        21                          0.1152158               3.1352
        22                          0.1324618               3.6045
        23                          0.1561417               4.2488
        24                          0.1821369               4.9562
        25                          0.2015300               5.4839
        26                          0.2099734               5.7137
        27                          0.2177225               5.9245
        28                          0.2494136               6.7869
       ...                                ...                  ...
        34                          0.6494835              17.6733
      -------------------------------------------------------------
                  HL-Gap            0.1269377 Eh            3.4541 eV
             Fermi-level           -0.2942917 Eh           -8.0081 eV

     #   Z          covCN         q      C6AA      α(0)
     1   6 C        2.887    -0.034    28.852     8.806
     2   6 C        2.887    -0.034    28.852     8.806
     3   6 C        3.107    -0.075    29.714     8.931
     4   6 C        3.105    -0.066    29.500     8.899
     5   6 C        3.105    -0.066    29.500     8.899
     6   6 C        3.107    -0.075    29.711     8.931
     7   1 H        0.925     0.028     2.609     2.526
     8   1 H        0.925     0.029     2.607     2.525
     9   1 H        0.925     0.037     2.486     2.466
    10   1 H        0.925     0.040     2.450     2.447
    11   1 H        0.926     0.035     2.517     2.481
    12   1 H        0.925     0.035     2.523     2.484
    13   1 H        0.925     0.035     2.522     2.483
    14   1 H        0.926     0.035     2.517     2.481
    15   1 H        0.925     0.037     2.491     2.468
    16   1 H        0.925     0.040     2.445     2.445

 Mol. C6AA /au·bohr⁶  :       2338.363698
 Mol. C8AA /au·bohr⁸  :      52863.154227
 Mol. α(0) /au        :         78.080510


Wiberg/Mayer (AO) data.
largest (>0.10) Wiberg bond orders for each atom

 ---------------------------------------------------------------------------
     #   Z sym  total        # sym  WBO       # sym  WBO       # sym  WBO
 ---------------------------------------------------------------------------
     1   6 C    3.992 --     2 C    1.900     6 C    1.069     7 H    0.947
     2   6 C    3.992 --     1 C    1.900     3 C    1.068     8 H    0.946
     3   6 C    3.989 --     2 C    1.068     9 H    0.971    10 H    0.967
                             4 C    0.873
     4   6 C    3.992 --     5 C    1.117    11 H    0.984    12 H    0.968
                             3 C    0.873
     5   6 C    3.992 --     4 C    1.117    14 H    0.984    13 H    0.968
                             6 C    0.872
     6   6 C    3.989 --     1 C    1.069    15 H    0.972    16 H    0.967
                             5 C    0.872
     7   1 H    0.999 --     1 C    0.947
     8   1 H    0.999 --     2 C    0.946
     9   1 H    0.999 --     3 C    0.971
    10   1 H    0.998 --     3 C    0.967
    11   1 H    0.999 --     4 C    0.984
    12   1 H    0.999 --     4 C    0.968
    13   1 H    0.999 --     5 C    0.968
    14   1 H    0.999 --     5 C    0.984
    15   1 H    0.999 --     6 C    0.972
    16   1 H    0.998 --     6 C    0.967
 ---------------------------------------------------------------------------

Topologies differ in total number of bonds
Writing topology from bond orders to xtbtopo.mol

molecular dipole:
                 x           y           z       tot (Debye)
 q only:        0.010       0.056       0.008
   full:        0.009       0.046       0.007       0.121
molecular quadrupole (traceless):
                xx          xy          yy          xz          yz          zz
 q only:        0.671      -0.122      -0.062      -0.068       0.092      -0.608
  q+dip:        1.443      -0.264       0.230       0.265       0.232      -1.673
   full:        0.930      -0.171       0.179       0.194       0.157      -1.108

           -------------------------------------------------
          |                Geometry Summary                 |
           -------------------------------------------------

      molecular mass/u    :       82.1438229
   center of mass at/Å    :       -0.0209120      -0.1202310      -0.0193391
  moments of inertia/u·Å² :        0.1185344E+03   0.1432096E+03   0.2396880E+03
rotational constants/cm⁻¹ :        0.1422172E+00   0.1177130E+00   0.7033155E-01

 * 12 selected distances

     #   Z          #   Z                                           value/Å
     1   6 C        2   6 C                                       1.3269610
     4   6 C        5   6 C                                       1.4575920 (max)
     1   6 C        7   1 H                                       1.0879851
     2   6 C        8   1 H                                       1.0880279
     3   6 C        9   1 H                                       1.0812644
     3   6 C       10   1 H                                       1.0824857
     4   6 C       11   1 H                                       1.0797189
     4   6 C       12   1 H                                       1.0824792
     5   6 C       13   1 H                                       1.0824644
     5   6 C       14   1 H                                       1.0795078 (min)
     6   6 C       15   1 H                                       1.0814547
     6   6 C       16   1 H                                       1.0821750

 * 2 distinct bonds (by element types)

   Z      Z             #   av. dist./Å        max./Å        min./Å
   1 H    6 C          10     1.0827563     1.0880279     1.0795078
   6 C    6 C           2     1.3922765     1.4575920     1.3269610


optimized geometry written to: xtbopt.xyz


           -------------------------------------------------
          | TOTAL ENERGY              -17.782348906997 Eh   |
          | GRADIENT NORM               0.000730462708 Eh/α |
          | HOMO-LUMO GAP               3.454149742959 eV   |
           -------------------------------------------------

------------------------------------------------------------------------
 * finished run on 2025/05/23 at 11:18:31.614     
------------------------------------------------------------------------
 total:
 * wall-time:     0 d,  0 h,  0 min,  0.102 sec
 *  cpu-time:     0 d,  0 h,  0 min,  0.102 sec
 * ratio c/w:     1.000 speedup
 SCF:
 * wall-time:     0 d,  0 h,  0 min,  0.009 sec
 *  cpu-time:     0 d,  0 h,  0 min,  0.009 sec
 * ratio c/w:     1.000 speedup
 ANC optimizer:
 * wall-time:     0 d,  0 h,  0 min,  0.085 sec
 *  cpu-time:     0 d,  0 h,  0 min,  0.085 sec
 * ratio c/w:     1.000 speedup

