      -----------------------------------------------------------      
     |                   =====================                   |     
     |                           x T B                           |     
     |                   =====================                   |     
     |                         S. Grimme                         |     
     |          Mulliken Center for Theoretical Chemistry        |     
     |                    University of Bonn                     |     
      -----------------------------------------------------------      

   * xtb version 6.6.1 (8d0f1dd) compiled by 'conda@1efc2f54142f' on 2023-08-01

   xtb is free software: you can redistribute it and/or modify it under
   the terms of the GNU Lesser General Public License as published by
   the Free Software Foundation, either version 3 of the License, or
   (at your option) any later version.
   
   xtb is distributed in the hope that it will be useful,
   but WITHOUT ANY WARRANTY; without even the implied warranty of
   MERCHANTABILITY or FITNESS FOR A PARTICULAR PURPOSE.  See the
   GNU Lesser General Public License for more details.
   
   Cite this work as:
   * C. Bannwarth, E. Caldeweyher, S. Ehlert, A. Hansen, P. Pracht,
     J. Seibert, S. Spicher, S. Grimme, WIREs Comput. Mol. Sci., 2020, 11,
     e01493. DOI: 10.1002/wcms.1493
   
   for GFN2-xTB:
   * C. Bannwarth, S. Ehlert and S. Grimme., J. Chem. Theory Comput., 2019,
     15, 1652-1671. DOI: 10.1021/acs.jctc.8b01176
   for GFN1-xTB:
   * S. Grimme, C. Bannwarth, P. Shushkov, J. Chem. Theory Comput., 2017,
     13, 1989-2009. DOI: 10.1021/acs.jctc.7b00118
   for GFN0-xTB:
   * P. Pracht, E. Caldeweyher, S. Ehlert, S. Grimme, ChemRxiv, 2019, preprint.
     DOI: 10.26434/chemrxiv.8326202.v1
   for GFN-FF:
   * S. Spicher and S. Grimme, Angew. Chem. Int. Ed., 2020, 59, 15665-15673.
     DOI: 10.1002/anie.202004239
   
   for ALPB and GBSA implicit solvation:
   * S. Ehlert, M. Stahn, S. Spicher, S. Grimme, J. Chem. Theory Comput.,
     2021, 17, 4250-4261. DOI: 10.1021/acs.jctc.1c00471
   
   for DFT-D4:
   * E. Caldeweyher, C. Bannwarth and S. Grimme, J. Chem. Phys., 2017,
     147, 034112. DOI: 10.1063/1.4993215
   * E. Caldeweyher, S. Ehlert, A. Hansen, H. Neugebauer, S. Spicher,
     C. Bannwarth and S. Grimme, J. Chem. Phys., 2019, 150, 154122.
     DOI: 10.1063/1.5090222
   * E. Caldeweyher, J.-M. Mewes, S. Ehlert and S. Grimme, Phys. Chem. Chem. Phys.
     2020, 22, 8499-8512. DOI: 10.1039/D0CP00502A
   
   for sTDA-xTB:
   * S. Grimme and C. Bannwarth, J. Chem. Phys., 2016, 145, 054103.
     DOI: 10.1063/1.4959605
   
   in the mass-spec context:
   * V. Asgeirsson, C. Bauer and S. Grimme, Chem. Sci., 2017, 8, 4879.
     DOI: 10.1039/c7sc00601b
   * J. Koopman and S. Grimme, ACS Omega 2019, 4, 12, 15120-15133.
     DOI: 10.1021/acsomega.9b02011
   
   for metadynamics refer to:
   * S. Grimme, J. Chem. Theory Comput., 2019, 155, 2847-2862
     DOI: 10.1021/acs.jctc.9b00143
   
   for SPH calculations refer to:
   * S. Spicher and S. Grimme, J. Chem. Theory Comput., 2021, 17, 1701-1714
     DOI: 10.1021/acs.jctc.0c01306
   
   with help from (in alphabetical order)
   P. Atkinson, C. Bannwarth, F. Bohle, G. Brandenburg, E. Caldeweyher
   M. Checinski, S. Dohm, S. Ehlert, S. Ehrlich, I. Gerasimov, C. Hölzer
   A. Katbashev, J. Koopman, C. Lavigne, S. Lehtola, F. März, M. Müller,
   F. Musil, H. Neugebauer, J. Pisarek, C. Plett, P. Pracht, F. Pultar,
   J. Seibert, P. Shushkov, S. Spicher, M. Stahn, M. Steiner, T. Strunk,
   J. Stückrath, T. Rose, and J. Unsleber
   
 * started run on 2025/05/23 at 11:18:31.771     

           -------------------------------------------------
          |                Calculation Setup                |
           -------------------------------------------------

          program call               : /home/avcopan/code/other/saddle-search-practice/.pixi/envs/default/bin/xtb path_opt11_xtb.xyz --chrg 0 --uhf 0 --opt --input xcontrol_path_opt11_xtb
          coordinate file            : path_opt11_xtb.xyz
          omp threads                :                     1

   ID    Z sym.   atoms
    1    6 C      1-6
    2    1 H      7-16
constraining bond 3 4 to    2.1596000 Å, actual value:    2.1095728 Å
constraining bond 5 6 to    2.1596000 Å, actual value:    2.1096204 Å

molecular fragmentation (1/2 indicates fragments):
1112211111222211
# atoms in fragment 1/2:    10     6
 fragment masses (1/2) :       54.09       28.05
CMA distance (Bohr)    :   4.599
constraining FC (au)   :  2.0000

           -------------------------------------------------
          |                 G F N 2 - x T B                 |
           -------------------------------------------------

        Reference                      10.1021/acs.jctc.8b01176
      * Hamiltonian:
        H0-scaling (s, p, d)           1.850000    2.230000    2.230000
        zeta-weighting                 0.500000
      * Dispersion:
        s8                             2.700000
        a1                             0.520000
        a2                             5.000000
        s9                             5.000000
      * Repulsion:
        kExp                           1.500000    1.000000
        rExp                           1.000000
      * Coulomb:
        alpha                          2.000000
        third order                    shell-resolved
        anisotropic                    true
        a3                             3.000000
        a5                             4.000000
        cn-shift                       1.200000
        cn-exp                         4.000000
        max-rad                        5.000000


          ...................................................
          :                      SETUP                      :
          :.................................................:
          :  # basis functions                  34          :
          :  # atomic orbitals                  34          :
          :  # shells                           22          :
          :  # electrons                        34          :
          :  max. iterations                   250          :
          :  Hamiltonian                  GFN2-xTB          :
          :  restarted?                      false          :
          :  GBSA solvation                  false          :
          :  PC potential                    false          :
          :  electronic temp.          300.0000000     K    :
          :  accuracy                    1.0000000          :
          :  -> integral cutoff          0.2500000E+02      :
          :  -> integral neglect         0.1000000E-07      :
          :  -> SCF convergence          0.1000000E-05 Eh   :
          :  -> wf. convergence          0.1000000E-03 e    :
          :  Broyden damping             0.4000000          :
          ...................................................

 iter      E             dE          RMSdq      gap      omega  full diag
   1    -18.0458455 -0.180458E+02  0.336E+00    3.46       0.0  T
   2    -18.0721052 -0.262597E-01  0.190E+00    3.44       1.0  T
   3    -18.0624954  0.960986E-02  0.107E+00    3.47       1.0  T
   4    -18.0691903 -0.669498E-02  0.627E-01    3.46       1.0  T
   5    -18.0747194 -0.552911E-02  0.634E-02    3.46       1.0  T
   6    -18.0747205 -0.102956E-05  0.198E-02    3.45       1.3  T
   7    -18.0747203  0.164028E-06  0.679E-03    3.45       3.7  T
   8    -18.0747209 -0.600231E-06  0.270E-03    3.45       9.3  T
   9    -18.0747210 -0.486759E-07  0.115E-03    3.45      21.7  T
  10    -18.0747210 -0.101108E-07  0.382E-04    3.45      65.4  T
  11    -18.0747210 -0.806352E-09  0.962E-05    3.45     259.8  T

   *** convergence criteria satisfied after 11 iterations ***

         #    Occupation            Energy/Eh            Energy/eV
      -------------------------------------------------------------
         1        2.0000           -0.6136343             -16.6978
       ...           ...                  ...                  ...
        11        2.0000           -0.4673942             -12.7184
        12        2.0000           -0.4592878             -12.4979
        13        2.0000           -0.4423641             -12.0373
        14        2.0000           -0.4373305             -11.9004
        15        2.0000           -0.3926481             -10.6845
        16        2.0000           -0.3836991             -10.4410
        17        2.0000           -0.3577618              -9.7352 (HOMO)
        18                         -0.2308227              -6.2810 (LUMO)
        19                         -0.1857361              -5.0541
        20                         -0.1829694              -4.9789
        21                          0.1152131               3.1351
        22                          0.1324595               3.6044
       ...                                ...                  ...
        34                          0.6494892              17.6735
      -------------------------------------------------------------
                  HL-Gap            0.1269390 Eh            3.4542 eV
             Fermi-level           -0.2942923 Eh           -8.0081 eV

 SCC (total)                   0 d,  0 h,  0 min,  0.009 sec
 SCC setup                      ...        0 min,  0.000 sec (  1.623%)
 Dispersion                     ...        0 min,  0.000 sec (  1.124%)
 classical contributions        ...        0 min,  0.000 sec (  0.310%)
 integral evaluation            ...        0 min,  0.001 sec ( 12.490%)
 iterations                     ...        0 min,  0.004 sec ( 49.829%)
 molecular gradient             ...        0 min,  0.003 sec ( 32.657%)
 printout                       ...        0 min,  0.000 sec (  1.810%)

         :::::::::::::::::::::::::::::::::::::::::::::::::::::
         ::                     SUMMARY                     ::
         :::::::::::::::::::::::::::::::::::::::::::::::::::::
         :: total energy             -17.748285184708 Eh    ::
         :: gradient norm              0.593682920937 Eh/a0 ::
         :: HOMO-LUMO gap              3.454187213959 eV    ::
         ::.................................................::
         :: SCC energy               -18.074720969939 Eh    ::
         :: -> isotropic ES            0.002710702334 Eh    ::
         :: -> anisotropic ES          0.007705972360 Eh    ::
         :: -> anisotropic XC          0.013698521802 Eh    ::
         :: -> dispersion             -0.010723999859 Eh    ::
         :: repulsion energy           0.290687202798 Eh    ::
         :: add. restraining           0.035715497124 Eh    ::
         :: total charge               0.000000000000 e     ::
         :::::::::::::::::::::::::::::::::::::::::::::::::::::

      ----------------------------------------------------------- 
     |                   =====================                   |
     |                        A N C O P T                        |
     |                   =====================                   |
     |               Approximate Normal Coordinate               |
     |                Rational Function Optimizer                |
      ----------------------------------------------------------- 

          ...................................................
          :                      SETUP                      :
          :.................................................:
          :   optimization level            normal          :
          :   max. optcycles                   200          :
          :   ANC micro-cycles                  20          :
          :   degrees of freedom                42          :
          :.................................................:
          :   RF solver                   davidson          :
          :   write xtbopt.log                true          :
          :   linear?                        false          :
          :   energy convergence         0.5000000E-05 Eh   :
          :   grad. convergence          0.1000000E-02 Eh/α :
          :   maxmium RF displ.          1.0000000          :
          :   Hlow (freq-cutoff)         0.1000000E-01      :
          :   Hmax (freq-cutoff)         5.0000000          :
          :   S6 in model hess.         20.0000000          :
          ...................................................

generating ANC from model Hessian ...
Using Lindh-Hessian (1995)
 Shifting diagonal of input Hessian by    6.1737396196550040E-002
 Lowest  eigenvalues of input Hessian
    0.010000    0.022776    0.029443    0.057653    0.000000    0.000000
    0.000000    0.000000    0.000000    0.000000    0.066565    0.071169
    0.073457    0.081771    0.082410    0.086675    0.087139    0.088926
 Highest eigenvalues
    1.249707    1.391495    1.557989    2.005383    8.358855    8.375526


........................................................................
.............................. CYCLE    1 ..............................
........................................................................

 iter      E             dE          RMSdq      gap      omega  full diag
   1    -18.0747210 -0.180747E+02  0.917E-06    3.45       0.0  T
   2    -18.0747210 -0.117240E-12  0.502E-06    3.45    4983.4  T
   3    -18.0747210  0.117240E-12  0.306E-06    3.45    8168.7  T
     SCC iter.                  ...        0 min,  0.003 sec
     gradient                   ...        0 min,  0.005 sec
 * total energy  :   -17.7482852 Eh     change       -0.1561418E-10 Eh
   gradient norm :     0.5936829 Eh/α   predicted     0.0000000E+00 (-100.00%)
   displ. norm   :     0.1245047 α      lambda       -0.7004341E-01
   maximum displ.:     0.1170119 α      in ANC's #41, #27, #10, ...

........................................................................
.............................. CYCLE    2 ..............................
........................................................................

 iter      E             dE          RMSdq      gap      omega  full diag
   1    -18.0625772 -0.180626E+02  0.175E-01    2.93       0.0  T
   2    -18.0625988 -0.215710E-04  0.101E-01    2.93       1.0  T
   3    -18.0625796  0.192313E-04  0.366E-02    2.93       1.0  T
   4    -18.0625888 -0.922602E-05  0.272E-02    2.93       1.0  T
   5    -18.0626006 -0.118119E-04  0.137E-03    2.93      18.2  T
   6    -18.0626006 -0.260767E-08  0.671E-04    2.93      37.2  T
   7    -18.0626006  0.164434E-08  0.400E-04    2.93      62.5  T
     SCC iter.                  ...        0 min,  0.006 sec
     gradient                   ...        0 min,  0.004 sec
 * total energy  :   -17.7628756 Eh     change       -0.1459042E-01 Eh
   gradient norm :     0.3476493 Eh/α   predicted    -0.3556459E-01 ( 143.75%)
   displ. norm   :     0.0467826 α      lambda       -0.1508892E-01
   maximum displ.:     0.0431519 α      in ANC's #41, #8, #18, ...

........................................................................
.............................. CYCLE    3 ..............................
........................................................................

 iter      E             dE          RMSdq      gap      omega  full diag
   1    -18.0653291 -0.180653E+02  0.780E-02    3.12       0.0  T
   2    -18.0653327 -0.366103E-05  0.459E-02    3.12       1.0  T
   3    -18.0653152  0.175454E-04  0.337E-02    3.11       1.0  T
   4    -18.0653338 -0.186243E-04  0.836E-03    3.11       3.0  T
   5    -18.0653347 -0.836962E-06  0.574E-04    3.11      43.5  T
   6    -18.0653347 -0.782187E-09  0.287E-04    3.11      87.0  T
     SCC iter.                  ...        0 min,  0.003 sec
     gradient                   ...        0 min,  0.003 sec
 * total energy  :   -17.7704683 Eh     change       -0.7592736E-02 Eh
   gradient norm :     0.0027863 Eh/α   predicted    -0.7560973E-02 (  -0.42%)
   displ. norm   :     0.0257444 α      lambda       -0.4335592E-04
   maximum displ.:     0.0164974 α      in ANC's #2, #8, #4, ...

........................................................................
.............................. CYCLE    4 ..............................
........................................................................

 iter      E             dE          RMSdq      gap      omega  full diag
   1    -18.0648627 -0.180649E+02  0.225E-02    3.11       0.0  T
   2    -18.0648627 -0.340298E-07  0.131E-02    3.11       1.9  T
   3    -18.0648625  0.165683E-06  0.330E-03    3.11       7.6  T
   4    -18.0648627 -0.170271E-06  0.779E-04    3.11      32.1  T
   5    -18.0648627 -0.843416E-08  0.209E-04    3.11     119.4  T
     SCC iter.                  ...        0 min,  0.003 sec
     gradient                   ...        0 min,  0.003 sec
 * total energy  :   -17.7705017 Eh     change       -0.3335602E-04 Eh
   gradient norm :     0.0018627 Eh/α   predicted    -0.2169263E-04 ( -34.97%)
   displ. norm   :     0.0805575 α      lambda       -0.7168178E-04
   maximum displ.:     0.0666616 α      in ANC's #8, #10, #4, ...

........................................................................
.............................. CYCLE    5 ..............................
........................................................................

 iter      E             dE          RMSdq      gap      omega  full diag
   1    -18.0627811 -0.180628E+02  0.770E-02    3.09       0.0  T
   2    -18.0627807  0.367918E-06  0.451E-02    3.09       1.0  T
   3    -18.0627579  0.228429E-04  0.379E-02    3.09       1.0  T
   4    -18.0627826 -0.247334E-04  0.135E-03    3.09      18.5  T
   5    -18.0627826 -0.693015E-08  0.632E-04    3.09      39.5  T
   6    -18.0627826  0.324604E-08  0.550E-04    3.09      45.4  T
     SCC iter.                  ...        0 min,  0.003 sec
     gradient                   ...        0 min,  0.004 sec
 * total energy  :   -17.7705150 Eh     change       -0.1328578E-04 Eh
   gradient norm :     0.0044735 Eh/α   predicted    -0.3594478E-04 ( 170.55%)
   displ. norm   :     0.0376161 α      lambda       -0.4998269E-04
   maximum displ.:     0.0330473 α      in ANC's #1, #2, #4, ...

........................................................................
.............................. CYCLE    6 ..............................
........................................................................

 iter      E             dE          RMSdq      gap      omega  full diag
   1    -18.0634547 -0.180635E+02  0.388E-02    3.09       0.0  T
   2    -18.0634543  0.399295E-06  0.237E-02    3.09       1.1  T
   3    -18.0634465  0.785312E-05  0.241E-02    3.09       1.0  T
   4    -18.0634555 -0.898812E-05  0.100E-03    3.09      24.9  T
   5    -18.0634555 -0.819794E-08  0.447E-04    3.09      55.9  T
   6    -18.0634555 -0.938421E-09  0.265E-04    3.09      94.4  T
     SCC iter.                  ...        0 min,  0.003 sec
     gradient                   ...        0 min,  0.003 sec
 * total energy  :   -17.7705342 Eh     change       -0.1919435E-04 Eh
   gradient norm :     0.0027386 Eh/α   predicted    -0.2502618E-04 (  30.38%)
   displ. norm   :     0.0449790 α      lambda       -0.6354043E-04
   maximum displ.:     0.0249267 α      in ANC's #1, #2, #8, ...

........................................................................
.............................. CYCLE    7 ..............................
........................................................................

 iter      E             dE          RMSdq      gap      omega  full diag
   1    -18.0651802 -0.180652E+02  0.509E-02    3.09       0.0  T
   2    -18.0651796  0.579449E-06  0.306E-02    3.09       1.0  T
   3    -18.0651670  0.125723E-04  0.309E-02    3.09       1.0  T
   4    -18.0651813 -0.142737E-04  0.105E-03    3.09      23.8  T
   5    -18.0651813 -0.655222E-08  0.527E-04    3.09      47.5  T
   6    -18.0651813 -0.709548E-09  0.371E-04    3.09      67.3  T
     SCC iter.                  ...        0 min,  0.002 sec
     gradient                   ...        0 min,  0.004 sec
 * total energy  :   -17.7705420 Eh     change       -0.7777687E-05 Eh
   gradient norm :     0.0047153 Eh/α   predicted    -0.3183645E-04 ( 309.33%)
   displ. norm   :     0.0198314 α      lambda       -0.3647686E-04
   maximum displ.:     0.0107128 α      in ANC's #1, #2, #8, ...

........................................................................
.............................. CYCLE    8 ..............................
........................................................................

 iter      E             dE          RMSdq      gap      omega  full diag
   1    -18.0647348 -0.180647E+02  0.263E-02    3.09       0.0  T
   2    -18.0647347  0.601249E-07  0.156E-02    3.09       1.6  T
   3    -18.0647323  0.238859E-05  0.126E-02    3.09       2.0  T
   4    -18.0647349 -0.255648E-05  0.348E-04    3.09      71.9  T
   5    -18.0647349 -0.456723E-09  0.200E-04    3.09     125.2  T
   6    -18.0647349  0.126615E-09  0.169E-04    3.09     147.7  T
     SCC iter.                  ...        0 min,  0.004 sec
     gradient                   ...        0 min,  0.004 sec
 * total energy  :   -17.7705644 Eh     change       -0.2246639E-04 Eh
   gradient norm :     0.0010174 Eh/α   predicted    -0.1824569E-04 ( -18.79%)
   displ. norm   :     0.0417659 α      lambda       -0.1521627E-04
   maximum displ.:     0.0233922 α      in ANC's #8, #2, #6, ...

........................................................................
.............................. CYCLE    9 ..............................
........................................................................

 iter      E             dE          RMSdq      gap      omega  full diag
   1    -18.0644898 -0.180645E+02  0.224E-02    3.08       0.0  T
   2    -18.0644898 -0.588972E-08  0.133E-02    3.08       1.9  T
   3    -18.0644892  0.615505E-06  0.622E-03    3.08       4.0  T
   4    -18.0644899 -0.650956E-06  0.488E-04    3.08      51.3  T
   5    -18.0644899 -0.871641E-09  0.285E-04    3.08      87.6  T
     SCC iter.                  ...        0 min,  0.002 sec
     gradient                   ...        0 min,  0.003 sec
 * total energy  :   -17.7705829 Eh     change       -0.1851781E-04 Eh
   gradient norm :     0.0011350 Eh/α   predicted    -0.7614040E-05 ( -58.88%)
   displ. norm   :     0.1715156 α      lambda       -0.5231028E-04
   maximum displ.:     0.0977604 α      in ANC's #2, #8, #6, ...

........................................................................
.............................. CYCLE   10 ..............................
........................................................................

 iter      E             dE          RMSdq      gap      omega  full diag
   1    -18.0643504 -0.180644E+02  0.667E-02    3.06       0.0  T
   2    -18.0643505 -0.432794E-07  0.402E-02    3.06       1.0  T
   3    -18.0643438  0.664623E-05  0.194E-02    3.06       1.3  T
   4    -18.0643509 -0.703736E-05  0.176E-03    3.06      14.2  T
   5    -18.0643509 -0.958707E-08  0.951E-04    3.06      26.3  T
   6    -18.0643509 -0.353171E-08  0.340E-04    3.06      73.5  T
     SCC iter.                  ...        0 min,  0.003 sec
     gradient                   ...        0 min,  0.003 sec
 * total energy  :   -17.7706428 Eh     change       -0.5981697E-04 Eh
   gradient norm :     0.0028818 Eh/α   predicted    -0.2649682E-04 ( -55.70%)
   displ. norm   :     0.2027314 α      lambda       -0.7527111E-04
   maximum displ.:     0.1180065 α      in ANC's #2, #6, #8, ...

........................................................................
.............................. CYCLE   11 ..............................
........................................................................

 iter      E             dE          RMSdq      gap      omega  full diag
   1    -18.0640379 -0.180640E+02  0.714E-02    3.04       0.0  T
   2    -18.0640377  0.120056E-06  0.434E-02    3.04       1.0  T
   3    -18.0640246  0.131272E-04  0.275E-02    3.04       1.0  T
   4    -18.0640386 -0.139538E-04  0.186E-03    3.04      13.5  T
   5    -18.0640386 -0.491396E-08  0.100E-03    3.04      24.9  T
   6    -18.0640386 -0.517148E-08  0.316E-04    3.04      79.0  T
   7    -18.0640386 -0.729869E-09  0.102E-04    3.04     246.0  T
     SCC iter.                  ...        0 min,  0.003 sec
     gradient                   ...        0 min,  0.003 sec
 * total energy  :   -17.7707067 Eh     change       -0.6391183E-04 Eh
   gradient norm :     0.0054622 Eh/α   predicted    -0.3917921E-04 ( -38.70%)
   displ. norm   :     0.4781514 α      lambda       -0.1781869E-03
   maximum displ.:     0.2698035 α      in ANC's #2, #6, #7, ...

........................................................................
.............................. CYCLE   12 ..............................
........................................................................

 iter      E             dE          RMSdq      gap      omega  full diag
   1    -18.0610852 -0.180611E+02  0.171E-01    3.00       0.0  T
   2    -18.0610842  0.106893E-05  0.105E-01    3.00       1.0  T
   3    -18.0609976  0.866054E-04  0.710E-02    3.00       1.0  T
   4    -18.0610900 -0.924358E-04  0.415E-03    3.00       6.0  T
   5    -18.0610900 -0.326652E-07  0.149E-03    3.00      16.8  T
   6    -18.0610900  0.169251E-09  0.824E-04    3.00      30.4  T
   7    -18.0610900 -0.681036E-08  0.313E-04    3.00      79.9  T
     SCC iter.                  ...        0 min,  0.003 sec
     gradient                   ...        0 min,  0.004 sec
 * total energy  :   -17.7707968 Eh     change       -0.9010034E-04 Eh
   gradient norm :     0.0259167 Eh/α   predicted    -0.1094528E-03 (  21.48%)
   displ. norm   :     0.0732985 α      lambda       -0.1988575E-03
   maximum displ.:     0.0348159 α      in ANC's #7, #6, #2, ...

........................................................................
.............................. CYCLE   13 ..............................
........................................................................

 iter      E             dE          RMSdq      gap      omega  full diag
   1    -18.0627413 -0.180627E+02  0.356E-02    3.01       0.0  T
   2    -18.0627414 -0.192138E-07  0.211E-02    3.01       1.2  T
   3    -18.0627382  0.318399E-05  0.143E-02    3.01       1.7  T
   4    -18.0627416 -0.339638E-05  0.968E-04    3.01      25.8  T
   5    -18.0627416  0.650804E-09  0.677E-04    3.01      36.9  T
   6    -18.0627416 -0.389259E-08  0.434E-04    3.01      57.6  T
     SCC iter.                  ...        0 min,  0.003 sec
     gradient                   ...        0 min,  0.003 sec
 * total energy  :   -17.7709633 Eh     change       -0.1664965E-03 Eh
   gradient norm :     0.0122999 Eh/α   predicted    -0.9996249E-04 ( -39.96%)
   displ. norm   :     0.5290764 α      lambda       -0.8272034E-03
   maximum displ.:     0.2459068 α      in ANC's #2, #7, #6, ...

........................................................................
.............................. CYCLE   14 ..............................
........................................................................

 iter      E             dE          RMSdq      gap      omega  full diag
   1    -18.0658471 -0.180658E+02  0.211E-01    3.03       0.0  T
   2    -18.0658468  0.331104E-06  0.126E-01    3.03       1.0  T
   3    -18.0657716  0.751798E-04  0.680E-02    3.04       1.0  T
   4    -18.0658516 -0.800058E-04  0.477E-03    3.04       5.2  T
   5    -18.0658516 -0.760813E-08  0.342E-03    3.04       7.3  T
   6    -18.0658517 -0.618835E-07  0.159E-03    3.04      15.8  T
   7    -18.0658517 -0.308465E-07  0.562E-04    3.04      44.5  T
   8    -18.0658517 -0.424612E-08  0.152E-04    3.04     164.4  T
     SCC iter.                  ...        0 min,  0.003 sec
     gradient                   ...        0 min,  0.003 sec
 * total energy  :   -17.7717584 Eh     change       -0.7950975E-03 Eh
   gradient norm :     0.0177674 Eh/α   predicted    -0.5293770E-03 ( -33.42%)
   displ. norm   :     0.8183998 α      lambda       -0.1765549E-02
   maximum displ.:     0.4047332 α      in ANC's #7, #2, #5, ...

........................................................................
.............................. CYCLE   15 ..............................
........................................................................

 iter      E             dE          RMSdq      gap      omega  full diag
   1    -18.0664349 -0.180664E+02  0.363E-01    3.10       0.0  T
   2    -18.0664391 -0.416271E-05  0.216E-01    3.10       1.0  T
   3    -18.0663503  0.888071E-04  0.731E-02    3.10       1.0  T
   4    -18.0664457 -0.953965E-04  0.763E-03    3.10       3.3  T
   5    -18.0664457 -0.137781E-07  0.450E-03    3.10       5.6  T
   6    -18.0664457 -0.144441E-07  0.310E-03    3.10       8.1  T
   7    -18.0664458 -0.117348E-06  0.774E-04    3.10      32.3  T
   8    -18.0664458 -0.606746E-08  0.366E-04    3.10      68.2  T
     SCC iter.                  ...        0 min,  0.003 sec
     gradient                   ...        0 min,  0.004 sec
 * total energy  :   -17.7730722 Eh     change       -0.1313824E-02 Eh
   gradient norm :     0.0898605 Eh/α   predicted    -0.1474086E-02 (  12.20%)
   displ. norm   :     0.8507635 α      lambda       -0.4944807E-02
   maximum displ.:     0.3596200 α      in ANC's #7, #5, #6, ...

........................................................................
.............................. CYCLE   16 ..............................
........................................................................

 iter      E             dE          RMSdq      gap      omega  full diag
   1    -18.1052692 -0.181053E+02  0.687E-01    3.35       0.0  T
   2    -18.1053319 -0.626884E-04  0.413E-01    3.34       1.0  T
   3    -18.1047282  0.603650E-03  0.191E-01    3.34       1.0  T
   4    -18.1053825 -0.654231E-03  0.361E-02    3.34       1.0  T
   5    -18.1053930 -0.104979E-04  0.154E-02    3.34       1.6  T
   6    -18.1053939 -0.898811E-06  0.740E-03    3.34       3.4  T
   7    -18.1053942 -0.301719E-06  0.174E-03    3.34      14.4  T
   8    -18.1053942 -0.502870E-08  0.820E-04    3.34      30.5  T
   9    -18.1053942  0.244466E-09  0.584E-04    3.34      42.8  T
     SCC iter.                  ...        0 min,  0.004 sec
     gradient                   ...        0 min,  0.003 sec
 * total energy  :   -17.7607047 Eh     change        0.1236750E-01 Eh
   gradient norm :     0.1611633 Eh/α   predicted    -0.4261910E-02 (-134.46%)
   displ. norm   :     0.3977446 α      lambda       -0.2243651E-01
   maximum displ.:     0.2302046 α      in ANC's #6, #14, #8, ...

........................................................................
.............................. CYCLE   17 ..............................
........................................................................

 iter      E             dE          RMSdq      gap      omega  full diag
   1    -18.0845760 -0.180846E+02  0.442E-01    3.28       0.0  T
   2    -18.0845991 -0.230517E-04  0.262E-01    3.28       1.0  T
   3    -18.0841670  0.432087E-03  0.176E-01    3.29       1.0  T
   4    -18.0846403 -0.473318E-03  0.208E-02    3.29       1.2  T
   5    -18.0846430 -0.269138E-05  0.112E-02    3.29       2.2  T
   6    -18.0846436 -0.616982E-06  0.520E-03    3.29       4.8  T
   7    -18.0846437 -0.885067E-07  0.261E-03    3.29       9.6  T
   8    -18.0846438 -0.658249E-07  0.109E-03    3.29      23.0  T
   9    -18.0846438 -0.150858E-07  0.343E-04    3.29      73.0  T
  10    -18.0846438 -0.280448E-09  0.328E-05    3.29     761.2  T
     SCC iter.                  ...        0 min,  0.004 sec
     gradient                   ...        0 min,  0.003 sec
 * total energy  :   -17.7742323 Eh     change       -0.1352763E-01 Eh
   gradient norm :     0.0681317 Eh/α   predicted    -0.1299302E-01 (  -3.95%)
   displ. norm   :     0.4050922 α      lambda       -0.4504077E-02
   maximum displ.:     0.2207123 α      in ANC's #2, #6, #1, ...

........................................................................
.............................. CYCLE   18 ..............................
........................................................................

 iter      E             dE          RMSdq      gap      omega  full diag
   1    -18.0725996 -0.180726E+02  0.244E-01    3.24       0.0  T
   2    -18.0726015 -0.193683E-05  0.152E-01    3.24       1.0  T
   3    -18.0724388  0.162760E-03  0.959E-02    3.24       1.0  T
   4    -18.0726137 -0.174874E-03  0.103E-02    3.24       2.4  T
   5    -18.0726144 -0.767295E-06  0.581E-03    3.24       4.3  T
   6    -18.0726146 -0.164433E-06  0.217E-03    3.24      11.5  T
   7    -18.0726146  0.370751E-09  0.178E-03    3.24      14.1  T
   8    -18.0726146 -0.398523E-07  0.282E-04    3.24      88.6  T
   9    -18.0726146 -0.496055E-09  0.136E-04    3.24     183.6  T
     SCC iter.                  ...        0 min,  0.004 sec
     gradient                   ...        0 min,  0.003 sec
 * total energy  :   -17.7765463 Eh     change       -0.2313969E-02 Eh
   gradient norm :     0.1201328 Eh/α   predicted    -0.2621591E-02 (  13.29%)
   displ. norm   :     0.3441336 α      lambda       -0.5349373E-02
   maximum displ.:     0.1612507 α      in ANC's #8, #1, #6, ...

........................................................................
.............................. CYCLE   19 ..............................
........................................................................

 iter      E             dE          RMSdq      gap      omega  full diag
   1    -18.0672132 -0.180672E+02  0.310E-01    3.25       0.0  T
   2    -18.0672296 -0.164583E-04  0.192E-01    3.25       1.0  T
   3    -18.0669612  0.268427E-03  0.129E-01    3.26       1.0  T
   4    -18.0672550 -0.293768E-03  0.242E-02    3.26       1.0  T
   5    -18.0672611 -0.608450E-05  0.877E-03    3.26       2.8  T
   6    -18.0672608  0.281380E-06  0.589E-03    3.26       4.2  T
   7    -18.0672614 -0.616666E-06  0.116E-03    3.26      21.5  T
   8    -18.0672614 -0.685372E-08  0.569E-04    3.26      44.0  T
   9    -18.0672614 -0.139258E-08  0.154E-04    3.26     162.3  T
     SCC iter.                  ...        0 min,  0.003 sec
     gradient                   ...        0 min,  0.003 sec
 * total energy  :   -17.7761950 Eh     change        0.3513129E-03 Eh
   gradient norm :     0.0578200 Eh/α   predicted    -0.2991446E-02 (-951.50%)
   displ. norm   :     0.4732451 α      lambda       -0.6425245E-02
   maximum displ.:     0.2728728 α      in ANC's #7, #1, #5, ...

........................................................................
.............................. CYCLE   20 ..............................
........................................................................

 iter      E             dE          RMSdq      gap      omega  full diag
   1    -18.0699068 -0.180699E+02  0.304E-01    3.34       0.0  T
   2    -18.0699193 -0.125266E-04  0.180E-01    3.34       1.0  T
   3    -18.0698860  0.332507E-04  0.457E-02    3.34       1.0  T
   4    -18.0699222 -0.361445E-04  0.161E-02    3.34       1.6  T
   5    -18.0699245 -0.230944E-05  0.584E-03    3.34       4.3  T
   6    -18.0699246 -0.131099E-06  0.275E-03    3.34       9.1  T
   7    -18.0699247 -0.483405E-07  0.728E-04    3.34      34.4  T
   8    -18.0699247 -0.271169E-08  0.342E-04    3.34      73.1  T
     SCC iter.                  ...        0 min,  0.003 sec
     gradient                   ...        0 min,  0.003 sec
 * total energy  :   -17.7808028 Eh     change       -0.4607864E-02 Eh
   gradient norm :     0.0429236 Eh/α   predicted    -0.3932116E-02 ( -14.67%)
   displ. norm   :     0.4154073 α      lambda       -0.6587195E-02
   maximum displ.:     0.2511785 α      in ANC's #1, #6, #27, ...
 * RMSD in coord.:     0.9101045 α      energy gain  -0.3251765E-01 Eh

generating ANC from model Hessian ...
Using Lindh-Hessian (1995)
 Shifting diagonal of input Hessian by    8.8906163868014507E-003
 Lowest  eigenvalues of input Hessian
    0.000000    0.000000    0.000000    0.000000    0.000000    0.000000
    0.010000    0.011932    0.013460    0.015821    0.019738    0.020624
    0.025988    0.029783    0.032905    0.033470    0.036007    0.040901
 Highest eigenvalues
    1.359367    1.537720    1.579733    1.936842    8.276490    8.320048


........................................................................
.............................. CYCLE   21 ..............................
........................................................................

 iter      E             dE          RMSdq      gap      omega  full diag
   1    -18.0918591 -0.180919E+02  0.327E-01    3.33       0.0  T
   2    -18.0918764 -0.172754E-04  0.190E-01    3.33       1.0  T
   3    -18.0916601  0.216285E-03  0.128E-01    3.33       1.0  T
   4    -18.0919027 -0.242556E-03  0.170E-02    3.33       1.5  T
   5    -18.0919056 -0.293728E-05  0.672E-03    3.33       3.7  T
   6    -18.0919055  0.844384E-07  0.394E-03    3.33       6.3  T
   7    -18.0919057 -0.220161E-06  0.137E-03    3.33      18.3  T
   8    -18.0919058 -0.141287E-07  0.552E-04    3.33      45.3  T
   9    -18.0919058 -0.251140E-08  0.244E-04    3.33     102.6  T
     SCC iter.                  ...        0 min,  0.003 sec
     gradient                   ...        0 min,  0.003 sec
 * total energy  :   -17.7834128 Eh     change       -0.2609975E-02 Eh
   gradient norm :     0.1254207 Eh/α   predicted     0.0000000E+00 (-100.00%)
   displ. norm   :     0.4204721 α      lambda       -0.1011679E-01
   maximum displ.:     0.2014455 α      in ANC's #2, #1, #6, ...

........................................................................
.............................. CYCLE   22 ..............................
........................................................................

 iter      E             dE          RMSdq      gap      omega  full diag
   1    -18.0914871 -0.180915E+02  0.308E-01    3.48       0.0  T
   2    -18.0915028 -0.156898E-04  0.177E-01    3.48       1.0  T
   3    -18.0914345  0.682806E-04  0.698E-02    3.48       1.0  T
   4    -18.0915101 -0.756280E-04  0.124E-02    3.48       2.0  T
   5    -18.0915122 -0.207774E-05  0.445E-03    3.48       5.6  T
   6    -18.0915122 -0.162003E-07  0.213E-03    3.48      11.8  T
   7    -18.0915122 -0.283020E-07  0.105E-03    3.48      23.7  T
   8    -18.0915122 -0.143855E-07  0.178E-04    3.48     140.6  T
   9    -18.0915122 -0.131060E-10  0.106E-04    3.48     235.2  T
     SCC iter.                  ...        0 min,  0.004 sec
     gradient                   ...        0 min,  0.003 sec
 * total energy  :   -17.7896016 Eh     change       -0.6188776E-02 Eh
   gradient norm :     0.0863160 Eh/α   predicted    -0.5952710E-02 (  -3.81%)
   displ. norm   :     0.5948753 α      lambda       -0.6723609E-02
   maximum displ.:     0.3680061 α      in ANC's #2, #1, #6, ...

........................................................................
.............................. CYCLE   23 ..............................
........................................................................

 iter      E             dE          RMSdq      gap      omega  full diag
   1    -18.0896661 -0.180897E+02  0.371E-01    3.57       0.0  T
   2    -18.0896812 -0.150257E-04  0.216E-01    3.57       1.0  T
   3    -18.0896357  0.454941E-04  0.548E-02    3.57       1.0  T
   4    -18.0896862 -0.504816E-04  0.115E-02    3.57       2.2  T
   5    -18.0896880 -0.181989E-05  0.377E-03    3.57       6.6  T
   6    -18.0896880 -0.400752E-07  0.187E-03    3.57      13.4  T
   7    -18.0896880 -0.477890E-09  0.105E-03    3.57      23.8  T
   8    -18.0896880 -0.102801E-07  0.201E-04    3.57     124.5  T
   9    -18.0896880 -0.411756E-09  0.928E-05    3.57     269.5  T
     SCC iter.                  ...        0 min,  0.004 sec
     gradient                   ...        0 min,  0.004 sec
 * total energy  :   -17.7955478 Eh     change       -0.5946168E-02 Eh
   gradient norm :     0.0454898 Eh/α   predicted    -0.4551491E-02 ( -23.46%)
   displ. norm   :     0.7953385 α      lambda       -0.8519233E-02
   maximum displ.:     0.5079567 α      in ANC's #2, #6, #1, ...

........................................................................
.............................. CYCLE   24 ..............................
........................................................................

 iter      E             dE          RMSdq      gap      omega  full diag
   1    -18.0908597 -0.180909E+02  0.522E-01    3.75       0.0  T
   2    -18.0908897 -0.300705E-04  0.305E-01    3.75       1.0  T
   3    -18.0908314  0.583056E-04  0.619E-02    3.76       1.0  T
   4    -18.0908994 -0.679476E-04  0.118E-02    3.75       2.1  T
   5    -18.0909009 -0.151646E-05  0.552E-03    3.75       4.5  T
   6    -18.0909011 -0.252626E-06  0.252E-03    3.75       9.9  T
   7    -18.0909011 -0.100574E-07  0.124E-03    3.75      20.1  T
   8    -18.0909012 -0.134966E-07  0.244E-04    3.75     102.4  T
   9    -18.0909012  0.758895E-10  0.138E-04    3.75     181.4  T
     SCC iter.                  ...        0 min,  0.004 sec
     gradient                   ...        0 min,  0.003 sec
 * total energy  :   -17.8018876 Eh     change       -0.6339882E-02 Eh
   gradient norm :     0.0903069 Eh/α   predicted    -0.6954042E-02 (   9.69%)
   displ. norm   :     0.5138474 α      lambda       -0.6193677E-02
   maximum displ.:     0.3069262 α      in ANC's #2, #6, #1, ...

........................................................................
.............................. CYCLE   25 ..............................
........................................................................

 iter      E             dE          RMSdq      gap      omega  full diag
   1    -18.1062205 -0.181062E+02  0.353E-01    3.91       0.0  T
   2    -18.1062330 -0.125118E-04  0.204E-01    3.91       1.0  T
   3    -18.1061991  0.338688E-04  0.500E-02    3.91       1.0  T
   4    -18.1062396 -0.404852E-04  0.603E-03    3.91       4.1  T
   5    -18.1062399 -0.272054E-06  0.342E-03    3.91       7.3  T
   6    -18.1062399 -0.597202E-07  0.733E-04    3.91      34.1  T
   7    -18.1062399 -0.132228E-08  0.458E-04    3.91      54.6  T
     SCC iter.                  ...        0 min,  0.003 sec
     gradient                   ...        0 min,  0.003 sec
 * total energy  :   -17.8067680 Eh     change       -0.4880341E-02 Eh
   gradient norm :     0.0975308 Eh/α   predicted    -0.3914534E-02 ( -19.79%)
   displ. norm   :     0.4417808 α      lambda       -0.7557292E-02
   maximum displ.:     0.2397561 α      in ANC's #2, #27, #1, ...

........................................................................
.............................. CYCLE   26 ..............................
........................................................................

 iter      E             dE          RMSdq      gap      omega  full diag
   1    -18.1427616 -0.181428E+02  0.342E-01    4.08       0.0  T
   2    -18.1427842 -0.225129E-04  0.200E-01    4.07       1.0  T
   3    -18.1427526  0.315868E-04  0.510E-02    4.07       1.0  T
   4    -18.1427926 -0.400438E-04  0.954E-03    4.07       2.6  T
   5    -18.1427929 -0.289561E-06  0.501E-03    4.06       5.0  T
   6    -18.1427930 -0.805238E-07  0.209E-03    4.07      12.0  T
   7    -18.1427930 -0.131221E-07  0.525E-04    4.07      47.6  T
   8    -18.1427930 -0.273256E-08  0.248E-04    4.07     101.0  T
     SCC iter.                  ...        0 min,  0.003 sec
     gradient                   ...        0 min,  0.003 sec
 * total energy  :   -17.8104037 Eh     change       -0.3635681E-02 Eh
   gradient norm :     0.0794058 Eh/α   predicted    -0.4516121E-02 (  24.22%)
   displ. norm   :     0.5807646 α      lambda       -0.5873080E-02
   maximum displ.:     0.3491837 α      in ANC's #2, #6, #1, ...

........................................................................
.............................. CYCLE   27 ..............................
........................................................................

 iter      E             dE          RMSdq      gap      omega  full diag
   1    -18.1318565 -0.181319E+02  0.346E-01    4.05       0.0  T
   2    -18.1318740 -0.175546E-04  0.202E-01    4.03       1.0  T
   3    -18.1318378  0.362023E-04  0.581E-02    4.06       1.0  T
   4    -18.1318832 -0.453299E-04  0.647E-03    4.04       3.9  T
   5    -18.1318831  0.476581E-07  0.336E-03    4.04       7.4  T
   6    -18.1318832 -0.120681E-06  0.922E-04    4.04      27.1  T
   7    -18.1318832 -0.330752E-08  0.399E-04    4.04      62.7  T
     SCC iter.                  ...        0 min,  0.003 sec
     gradient                   ...        0 min,  0.003 sec
 * total energy  :   -17.8132518 Eh     change       -0.2848184E-02 Eh
   gradient norm :     0.0661306 Eh/α   predicted    -0.3926984E-02 (  37.88%)
   displ. norm   :     0.3860619 α      lambda       -0.2609300E-02
   maximum displ.:     0.3355449 α      in ANC's #2, #6, #5, ...

........................................................................
.............................. CYCLE   28 ..............................
........................................................................

 iter      E             dE          RMSdq      gap      omega  full diag
   1    -18.1240351 -0.181240E+02  0.220E-01    4.06       0.0  T
   2    -18.1240403 -0.519975E-05  0.130E-01    4.06       1.0  T
   3    -18.1240386  0.169649E-05  0.147E-02    4.05       1.7  T
   4    -18.1240415 -0.289993E-05  0.578E-03    4.05       4.3  T
   5    -18.1240416 -0.165023E-06  0.223E-03    4.05      11.2  T
   6    -18.1240417 -0.636274E-08  0.138E-03    4.05      18.1  T
   7    -18.1240417 -0.124256E-07  0.272E-04    4.05      92.0  T
   8    -18.1240417 -0.463960E-09  0.132E-04    4.05     189.2  T
     SCC iter.                  ...        0 min,  0.003 sec
     gradient                   ...        0 min,  0.003 sec
 * total energy  :   -17.8137435 Eh     change       -0.4916505E-03 Eh
   gradient norm :     0.0830887 Eh/α   predicted    -0.1499102E-02 ( 204.91%)
   displ. norm   :     0.1738892 α      lambda       -0.2988348E-02
   maximum displ.:     0.0704544 α      in ANC's #10, #3, #11, ...

........................................................................
.............................. CYCLE   29 ..............................
........................................................................

 iter      E             dE          RMSdq      gap      omega  full diag
   1    -18.1398769 -0.181399E+02  0.211E-01    4.06       0.0  T
   2    -18.1398896 -0.127343E-04  0.123E-01    4.06       1.0  T
   3    -18.1398634  0.261892E-04  0.471E-02    4.06       1.0  T
   4    -18.1398965 -0.330444E-04  0.599E-03    4.06       4.2  T
   5    -18.1398966 -0.109371E-06  0.311E-03    4.06       8.0  T
   6    -18.1398966 -0.504144E-07  0.162E-03    4.06      15.4  T
   7    -18.1398966 -0.696343E-08  0.490E-04    4.06      51.0  T
   8    -18.1398966 -0.265190E-08  0.124E-04    4.06     201.3  T
     SCC iter.                  ...        0 min,  0.003 sec
     gradient                   ...        0 min,  0.003 sec
 * total energy  :   -17.8149411 Eh     change       -0.1197570E-02 Eh
   gradient norm :     0.0477675 Eh/α   predicted    -0.1539354E-02 (  28.54%)
   displ. norm   :     0.2214597 α      lambda       -0.2270227E-02
   maximum displ.:     0.1424267 α      in ANC's #6, #5, #4, ...

........................................................................
.............................. CYCLE   30 ..............................
........................................................................

 iter      E             dE          RMSdq      gap      omega  full diag
   1    -18.1463484 -0.181463E+02  0.226E-01    4.07       0.0  T
   2    -18.1463561 -0.762542E-05  0.132E-01    4.06       1.0  T
   3    -18.1463426  0.134798E-04  0.396E-02    4.08       1.0  T
   4    -18.1463598 -0.172340E-04  0.668E-03    4.07       3.7  T
   5    -18.1463598 -0.368360E-09  0.385E-03    4.07       6.5  T
   6    -18.1463599 -0.942839E-07  0.115E-03    4.07      21.7  T
   7    -18.1463599 -0.481146E-08  0.345E-04    4.07      72.5  T
   8    -18.1463599 -0.128880E-08  0.137E-04    4.07     182.5  T
     SCC iter.                  ...        0 min,  0.003 sec
     gradient                   ...        0 min,  0.003 sec
 * total energy  :   -17.8141738 Eh     change        0.7672312E-03 Eh
   gradient norm :     0.0822482 Eh/α   predicted    -0.1190790E-02 (-255.21%)
   displ. norm   :     0.2111047 α      lambda       -0.3275641E-02
   maximum displ.:     0.1669373 α      in ANC's #2, #11, #1, ...

........................................................................
.............................. CYCLE   31 ..............................
........................................................................

 iter      E             dE          RMSdq      gap      omega  full diag
   1    -18.1373469 -0.181373E+02  0.196E-01    4.06       0.0  T
   2    -18.1373511 -0.416008E-05  0.116E-01    4.06       1.0  T
   3    -18.1373493  0.176235E-05  0.145E-02    4.05       1.7  T
   4    -18.1373520 -0.269916E-05  0.459E-03    4.05       5.5  T
   5    -18.1373521 -0.108878E-06  0.214E-03    4.05      11.7  T
   6    -18.1373521 -0.102301E-07  0.116E-03    4.05      21.5  T
   7    -18.1373521 -0.981440E-08  0.225E-04    4.05     111.2  T
   8    -18.1373521 -0.175724E-09  0.104E-04    4.05     241.4  T
     SCC iter.                  ...        0 min,  0.003 sec
     gradient                   ...        0 min,  0.003 sec
 * total energy  :   -17.8156047 Eh     change       -0.1430863E-02 Eh
   gradient norm :     0.0356218 Eh/α   predicted    -0.1710807E-02 (  19.56%)
   displ. norm   :     0.2396807 α      lambda       -0.1531665E-02
   maximum displ.:     0.1397937 α      in ANC's #1, #5, #4, ...

........................................................................
.............................. CYCLE   32 ..............................
........................................................................

 iter      E             dE          RMSdq      gap      omega  full diag
   1    -18.1348658 -0.181349E+02  0.207E-01    4.06       0.0  T
   2    -18.1348800 -0.141518E-04  0.120E-01    4.07       1.0  T
   3    -18.1348468  0.331733E-04  0.565E-02    4.05       1.0  T
   4    -18.1348904 -0.436319E-04  0.643E-03    4.06       3.9  T
   5    -18.1348905 -0.171633E-07  0.341E-03    4.06       7.3  T
   6    -18.1348905 -0.711000E-07  0.667E-04    4.06      37.5  T
   7    -18.1348905 -0.396958E-08  0.311E-04    4.06      80.3  T
     SCC iter.                  ...        0 min,  0.003 sec
     gradient                   ...        0 min,  0.003 sec
 * total energy  :   -17.8151750 Eh     change        0.4296527E-03 Eh
   gradient norm :     0.0379564 Eh/α   predicted    -0.8098215E-03 (-288.48%)
   displ. norm   :     0.1499848 α      lambda       -0.1793818E-02
   maximum displ.:     0.1093112 α      in ANC's #4, #5, #6, ...

........................................................................
.............................. CYCLE   33 ..............................
........................................................................

 iter      E             dE          RMSdq      gap      omega  full diag
   1    -18.1378601 -0.181379E+02  0.139E-01    4.04       0.0  T
   2    -18.1378656 -0.554294E-05  0.814E-02    4.03       1.0  T
   3    -18.1378518  0.138219E-04  0.355E-02    4.05       1.0  T
   4    -18.1378696 -0.177492E-04  0.386E-03    4.04       6.5  T
   5    -18.1378696 -0.585284E-08  0.202E-03    4.04      12.4  T
   6    -18.1378696 -0.253584E-07  0.387E-04    4.04      64.5  T
   7    -18.1378696 -0.442011E-09  0.191E-04    4.04     131.0  T
     SCC iter.                  ...        0 min,  0.003 sec
     gradient                   ...        0 min,  0.003 sec
 * total energy  :   -17.8160865 Eh     change       -0.9114124E-03 Eh
   gradient norm :     0.0309607 Eh/α   predicted    -0.9170828E-03 (   0.62%)
   displ. norm   :     0.1127724 α      lambda       -0.7362433E-03
   maximum displ.:     0.0626796 α      in ANC's #12, #8, #5, ...

........................................................................
.............................. CYCLE   34 ..............................
........................................................................

 iter      E             dE          RMSdq      gap      omega  full diag
   1    -18.1397701 -0.181398E+02  0.122E-01    4.10       0.0  T
   2    -18.1397731 -0.299879E-05  0.728E-02    4.10       1.0  T
   3    -18.1397659  0.728363E-05  0.217E-02    4.10       1.2  T
   4    -18.1397747 -0.888012E-05  0.335E-03    4.10       7.5  T
   5    -18.1397748 -0.155287E-07  0.110E-03    4.10      22.8  T
   6    -18.1397747  0.619536E-09  0.491E-04    4.10      50.9  T
   7    -18.1397748 -0.223556E-08  0.128E-04    4.10     195.8  T
     SCC iter.                  ...        0 min,  0.003 sec
     gradient                   ...        0 min,  0.004 sec
 * total energy  :   -17.8159239 Eh     change        0.1625219E-03 Eh
   gradient norm :     0.0289431 Eh/α   predicted    -0.3728057E-03 (-329.39%)
   displ. norm   :     0.1296733 α      lambda       -0.8962938E-03
   maximum displ.:     0.0873358 α      in ANC's #2, #1, #4, ...

........................................................................
.............................. CYCLE   35 ..............................
........................................................................

 iter      E             dE          RMSdq      gap      omega  full diag
   1    -18.1382647 -0.181383E+02  0.824E-02    4.06       0.0  T
   2    -18.1382656 -0.971246E-06  0.486E-02    4.06       1.0  T
   3    -18.1382636  0.209151E-05  0.121E-02    4.06       2.1  T
   4    -18.1382661 -0.259168E-05  0.233E-03    4.06      10.7  T
   5    -18.1382661 -0.347004E-08  0.811E-04    4.06      30.8  T
   6    -18.1382662 -0.322693E-08  0.486E-04    4.06      51.4  T
     SCC iter.                  ...        0 min,  0.002 sec
     gradient                   ...        0 min,  0.003 sec
 * total energy  :   -17.8164658 Eh     change       -0.5418320E-03 Eh
   gradient norm :     0.0112201 Eh/α   predicted    -0.4556845E-03 ( -15.90%)
   displ. norm   :     0.1442788 α      lambda       -0.2889321E-03
   maximum displ.:     0.1088603 α      in ANC's #1, #2, #3, ...

........................................................................
.............................. CYCLE   36 ..............................
........................................................................

 iter      E             dE          RMSdq      gap      omega  full diag
   1    -18.1381076 -0.181381E+02  0.457E-02    4.05       0.0  T
   2    -18.1381082 -0.536654E-06  0.268E-02    4.05       1.0  T
   3    -18.1381066  0.160224E-05  0.125E-02    4.05       2.0  T
   4    -18.1381086 -0.202058E-05  0.145E-03    4.05      17.3  T
   5    -18.1381086  0.141772E-08  0.972E-04    4.05      25.7  T
   6    -18.1381086 -0.886028E-08  0.148E-04    4.05     169.2  T
     SCC iter.                  ...        0 min,  0.003 sec
     gradient                   ...        0 min,  0.004 sec
 * total energy  :   -17.8166681 Eh     change       -0.2023653E-03 Eh
   gradient norm :     0.0159943 Eh/α   predicted    -0.1474726E-03 ( -27.13%)
   displ. norm   :     0.3897964 α      lambda       -0.5476458E-03
   maximum displ.:     0.2962466 α      in ANC's #1, #2, #4, ...

........................................................................
.............................. CYCLE   37 ..............................
........................................................................

 iter      E             dE          RMSdq      gap      omega  full diag
   1    -18.1359471 -0.181359E+02  0.135E-01    4.05       0.0  T
   2    -18.1359515 -0.440879E-05  0.789E-02    4.05       1.0  T
   3    -18.1359361  0.153419E-04  0.336E-02    4.05       1.0  T
   4    -18.1359552 -0.190402E-04  0.260E-03    4.05       9.6  T
   5    -18.1359552  0.414591E-08  0.131E-03    4.05      19.1  T
   6    -18.1359552 -0.106635E-07  0.334E-04    4.05      74.9  T
   7    -18.1359552 -0.706326E-09  0.177E-04    4.05     141.5  T
     SCC iter.                  ...        0 min,  0.003 sec
     gradient                   ...        0 min,  0.003 sec
 * total energy  :   -17.8168914 Eh     change       -0.2232551E-03 Eh
   gradient norm :     0.0285599 Eh/α   predicted    -0.3154207E-03 (  41.28%)
   displ. norm   :     0.0958165 α      lambda       -0.3988810E-03
   maximum displ.:     0.0687533 α      in ANC's #1, #15, #28, ...

........................................................................
.............................. CYCLE   38 ..............................
........................................................................

 iter      E             dE          RMSdq      gap      omega  full diag
   1    -18.1378120 -0.181378E+02  0.539E-02    4.05       0.0  T
   2    -18.1378126 -0.627942E-06  0.326E-02    4.05       1.0  T
   3    -18.1378105  0.208903E-05  0.144E-02    4.05       1.7  T
   4    -18.1378130 -0.254244E-05  0.188E-03    4.05      13.3  T
   5    -18.1378130 -0.314040E-08  0.138E-03    4.05      18.1  T
   6    -18.1378131 -0.102227E-07  0.247E-04    4.05     101.0  T
   7    -18.1378131 -0.147352E-09  0.148E-04    4.05     168.8  T
     SCC iter.                  ...        0 min,  0.003 sec
     gradient                   ...        0 min,  0.004 sec
 * total energy  :   -17.8171146 Eh     change       -0.2232496E-03 Eh
   gradient norm :     0.0116457 Eh/α   predicted    -0.2012700E-03 (  -9.85%)
   displ. norm   :     0.1284135 α      lambda       -0.2126064E-03
   maximum displ.:     0.0838362 α      in ANC's #1, #2, #3, ...

........................................................................
.............................. CYCLE   39 ..............................
........................................................................

 iter      E             dE          RMSdq      gap      omega  full diag
   1    -18.1392968 -0.181393E+02  0.523E-02    4.07       0.0  T
   2    -18.1392977 -0.907786E-06  0.308E-02    4.07       1.0  T
   3    -18.1392952  0.248864E-05  0.150E-02    4.07       1.7  T
   4    -18.1392985 -0.324157E-05  0.115E-03    4.07      21.7  T
   5    -18.1392985 -0.715108E-09  0.809E-04    4.07      30.9  T
   6    -18.1392985 -0.420948E-08  0.155E-04    4.07     161.1  T
     SCC iter.                  ...        0 min,  0.003 sec
     gradient                   ...        0 min,  0.003 sec
 * total energy  :   -17.8172373 Eh     change       -0.1226315E-03 Eh
   gradient norm :     0.0094437 Eh/α   predicted    -0.1080571E-03 ( -11.88%)
   displ. norm   :     0.1405101 α      lambda       -0.1152998E-03
   maximum displ.:     0.0911236 α      in ANC's #2, #1, #4, ...

........................................................................
.............................. CYCLE   40 ..............................
........................................................................

 iter      E             dE          RMSdq      gap      omega  full diag
   1    -18.1393741 -0.181394E+02  0.563E-02    4.07       0.0  T
   2    -18.1393744 -0.272199E-06  0.333E-02    4.07       1.0  T
   3    -18.1393737  0.725361E-06  0.710E-03    4.07       3.5  T
   4    -18.1393746 -0.877374E-06  0.899E-04    4.07      27.8  T
   5    -18.1393746 -0.348624E-09  0.501E-04    4.07      49.9  T
     SCC iter.                  ...        0 min,  0.002 sec
     gradient                   ...        0 min,  0.003 sec
 * total energy  :   -17.8172958 Eh     change       -0.5857361E-04 Eh
   gradient norm :     0.0070850 Eh/α   predicted    -0.5878901E-04 (   0.37%)
   displ. norm   :     0.0889395 α      lambda       -0.5245225E-04
   maximum displ.:     0.0683686 α      in ANC's #1, #2, #28, ...

........................................................................
.............................. CYCLE   41 ..............................
........................................................................

 iter      E             dE          RMSdq      gap      omega  full diag
   1    -18.1397525 -0.181398E+02  0.324E-02    4.07       0.0  T
   2    -18.1397528 -0.272886E-06  0.187E-02    4.07       1.3  T
   3    -18.1397519  0.818900E-06  0.807E-03    4.07       3.1  T
   4    -18.1397530 -0.102604E-05  0.639E-04    4.07      39.1  T
   5    -18.1397530 -0.786891E-10  0.354E-04    4.07      70.7  T
   6    -18.1397530 -0.628660E-09  0.127E-04    4.07     196.6  T
     SCC iter.                  ...        0 min,  0.003 sec
     gradient                   ...        0 min,  0.003 sec
 * total energy  :   -17.8173189 Eh     change       -0.2309261E-04 Eh
   gradient norm :     0.0037416 Eh/α   predicted    -0.2643249E-04 (  14.46%)
   displ. norm   :     0.0411042 α      lambda       -0.3437354E-04
   maximum displ.:     0.0284780 α      in ANC's #1, #8, #3, ...

........................................................................
.............................. CYCLE   42 ..............................
........................................................................

 iter      E             dE          RMSdq      gap      omega  full diag
   1    -18.1405636 -0.181406E+02  0.210E-02    4.07       0.0  T
   2    -18.1405637 -0.766734E-07  0.124E-02    4.07       2.0  T
   3    -18.1405635  0.200346E-06  0.363E-03    4.07       6.9  T
   4    -18.1405637 -0.247462E-06  0.580E-04    4.07      43.1  T
   5    -18.1405637 -0.147299E-09  0.147E-04    4.07     169.7  T
     SCC iter.                  ...        0 min,  0.002 sec
     gradient                   ...        0 min,  0.003 sec
 * total energy  :   -17.8173349 Eh     change       -0.1601734E-04 Eh
   gradient norm :     0.0031722 Eh/α   predicted    -0.1721640E-04 (   7.49%)
   displ. norm   :     0.0311045 α      lambda       -0.2233321E-04
   maximum displ.:     0.0215901 α      in ANC's #2, #1, #6, ...
 * RMSD in coord.:     1.0186765 α      energy gain  -0.3653211E-01 Eh

generating ANC from model Hessian ...
Using Lindh-Hessian (1995)
 Shifting diagonal of input Hessian by    9.1037230381169638E-003
 Lowest  eigenvalues of input Hessian
    0.000000    0.000000    0.000000    0.000000    0.000000    0.000000
    0.010000    0.010257    0.012356    0.014479    0.017854    0.020618
    0.025494    0.029412    0.029768    0.031784    0.032862    0.052047
 Highest eigenvalues
    1.469967    1.627526    1.790587    1.917795    8.229769    8.257327


........................................................................
.............................. CYCLE   43 ..............................
........................................................................

 iter      E             dE          RMSdq      gap      omega  full diag
   1    -18.1403003 -0.181403E+02  0.186E-02    4.07       0.0  T
   2    -18.1403003 -0.194628E-07  0.110E-02    4.07       2.3  T
   3    -18.1403003  0.435786E-07  0.181E-03    4.07      13.8  T
   4    -18.1403004 -0.552295E-07  0.351E-04    4.07      71.2  T
   5    -18.1403004  0.180755E-09  0.221E-04    4.07     113.2  T
     SCC iter.                  ...        0 min,  0.002 sec
     gradient                   ...        0 min,  0.003 sec
 * total energy  :   -17.8173459 Eh     change       -0.1098022E-04 Eh
   gradient norm :     0.0050760 Eh/α   predicted     0.0000000E+00 (-100.00%)
   displ. norm   :     0.0196514 α      lambda       -0.1929989E-04
   maximum displ.:     0.0113064 α      in ANC's #2, #6, #13, ...

........................................................................
.............................. CYCLE   44 ..............................
........................................................................

 iter      E             dE          RMSdq      gap      omega  full diag
   1    -18.1402075 -0.181402E+02  0.178E-02    4.07       0.0  T
   2    -18.1402076 -0.542483E-07  0.105E-02    4.07       2.4  T
   3    -18.1402073  0.248267E-06  0.508E-03    4.07       4.9  T
   4    -18.1402076 -0.299903E-06  0.435E-04    4.07      57.5  T
   5    -18.1402076 -0.113539E-08  0.248E-04    4.07     101.0  T
     SCC iter.                  ...        0 min,  0.002 sec
     gradient                   ...        0 min,  0.004 sec
 * total energy  :   -17.8173561 Eh     change       -0.1021328E-04 Eh
   gradient norm :     0.0027019 Eh/α   predicted    -0.9653867E-05 (  -5.48%)
   displ. norm   :     0.0131154 α      lambda       -0.5095836E-05
   maximum displ.:     0.0079313 α      in ANC's #3, #13, #6, ...

........................................................................
.............................. CYCLE   45 ..............................
........................................................................

 iter      E             dE          RMSdq      gap      omega  full diag
   1    -18.1401393 -0.181401E+02  0.102E-02    4.07       0.0  T
   2    -18.1401393 -0.125005E-07  0.599E-03    4.07       4.2  T
   3    -18.1401393  0.269285E-07  0.141E-03    4.07      17.7  T
   4    -18.1401393 -0.330963E-07  0.171E-04    4.07     146.4  T
   5    -18.1401393 -0.591847E-10  0.994E-05    4.07     251.5  T
     SCC iter.                  ...        0 min,  0.002 sec
     gradient                   ...        0 min,  0.003 sec
 * total energy  :   -17.8173587 Eh     change       -0.2571869E-05 Eh
   gradient norm :     0.0004176 Eh/α   predicted    -0.2548704E-05 (  -0.90%)
   displ. norm   :     0.0085455 α      lambda       -0.1091969E-05
   maximum displ.:     0.0046591 α      in ANC's #3, #13, #4, ...

   *** GEOMETRY OPTIMIZATION CONVERGED AFTER 45 ITERATIONS ***

------------------------------------------------------------------------
 total energy gain   :        -0.0690735 Eh      -43.3443 kcal/mol
 total RMSD          :         1.8467730 a0        0.9773 Å
 total power (kW/mol):        -4.0300561 (step) -477.8167 (real)
------------------------------------------------------------------------

 ANCopt (total)                0 d,  0 h,  0 min,  0.380 sec
 optimizer setup                ...        0 min,  0.000 sec (  0.026%)
 model hessian                  ...        0 min,  0.017 sec (  4.541%)
 ANC generation                 ...        0 min,  0.001 sec (  0.260%)
 coordinate transformation      ...        0 min,  0.000 sec (  0.095%)
 single point calculation       ...        0 min,  0.345 sec ( 90.774%)
 optimization log               ...        0 min,  0.005 sec (  1.354%)
 hessian update                 ...        0 min,  0.001 sec (  0.156%)
 rational function              ...        0 min,  0.006 sec (  1.527%)

================
 final structure:
================
16
 xtb: 6.6.1 (8d0f1dd)
C           -0.85076891936439       -1.33038604998459        0.17952633564058
C            0.50319163948814       -1.50746916370540       -0.05738994586599
C            1.22557721320810       -0.59018497973600       -0.79954691285688
C            0.93078287587543        1.20476459366653        0.35943957688997
C           -0.42564190308889        1.38273538569760        0.59690141455794
C           -1.52784091069545       -0.23063570517838       -0.31647364841129
H           -1.32627627376328       -1.94111884680168        0.93512616248418
H            1.03521915920020       -2.24953644075746        0.52266858530510
H            0.77127750496464       -0.11271561997788       -1.65064712249956
H            2.29896091856170       -0.68363532110650       -0.85305212598539
H            1.41859365320334        1.80628487428261       -0.38920998540085
H            1.56173677164175        0.85814236950332        1.16014521419603
H           -0.96815857202543        2.11928170746950        0.02816765629257
H           -0.81801136632273        1.17078359861012        1.57713592511140
H           -2.54450224212914       -0.05330189372336       -0.00220033415111
H           -1.28406954875246        0.15689149174228       -1.29037079530690

 Bond Distances (Angstroems)
 ---------------------------
C1-C2=1.3859         C1-C6=1.3834         C1-H7=1.0817         C2-C1=1.3859         C2-C3=1.3835         C2-H8=1.0818         
C3-C2=1.3835         C3-H9=1.0764         C3-H10=1.0788        C4-C5=1.3885         C4-H11=1.0772        C4-H12=1.0767        
C5-C4=1.3885         C5-H13=1.0772        C5-H14=1.0769        C6-C1=1.3834         C6-H15=1.0788        C6-H16=1.0761        
H7-C1=1.0817         H8-C2=1.0818         H9-C3=1.0764         H10-C3=1.0788        H11-C4=1.0772        H12-C4=1.0767        
H13-C5=1.0772        H14-C5=1.0769        H15-C6=1.0788        H16-C6=1.0761        
 C  H  Rav=1.0782 sigma=0.0020  Rmin=1.0761  Rmax=1.0818    10
 C  C  Rav=1.3853 sigma=0.0021  Rmin=1.3834  Rmax=1.3885     4

 selected bond angles (degree)
 --------------------
C6-C1-C2=121.23                H7-C1-C2=118.47                H7-C1-C6=118.96                C3-C2-C1=121.14                
H8-C2-C1=118.46                H8-C2-C3=119.06                H9-C3-C2=119.86                H10-C3-C2=119.26               
H10-C3-H9=114.78               H11-C4-C5=119.32               H12-C4-C5=119.11               H12-C4-H11=115.55              
H13-C5-C4=119.30               H14-C5-C4=119.10               H14-C5-H13=115.57              H15-C6-C1=119.17               
H16-C6-C1=119.99               H16-C6-H15=114.70              

 selected dihedral angles (degree)
 ---------------------------------
C3-C2-C1-C6=359.96            C3-C2-C1-H7=193.34            H8-C2-C1-C6=166.57            H8-C2-C1-H7=359.95            
H9-C3-C2-C1=322.80            H9-C3-C2-H8=156.27            H10-C3-C2-C1=171.69           H10-C3-C2-H8=  5.16           
H13-C5-C4-H11=  0.03          H13-C5-C4-H12=151.53          H14-C5-C4-H11=208.52          H14-C5-C4-H12=  0.03          
H15-C6-C1-C2=188.33           H15-C6-C1-H7=354.88           H16-C6-C1-C2= 37.30           H16-C6-C1-H7=203.86           

 CMA Distance (Angstroems)
 ---------------------------
R(CMA):  2.3888
           -------------------------------------------------
          |                Final Singlepoint                |
           -------------------------------------------------

          ...................................................
          :                      SETUP                      :
          :.................................................:
          :  # basis functions                  34          :
          :  # atomic orbitals                  34          :
          :  # shells                           22          :
          :  # electrons                        34          :
          :  max. iterations                   250          :
          :  Hamiltonian                  GFN2-xTB          :
          :  restarted?                      false          :
          :  GBSA solvation                  false          :
          :  PC potential                    false          :
          :  electronic temp.          300.0000000     K    :
          :  accuracy                    1.0000000          :
          :  -> integral cutoff          0.2500000E+02      :
          :  -> integral neglect         0.1000000E-07      :
          :  -> SCF convergence          0.1000000E-05 Eh   :
          :  -> wf. convergence          0.1000000E-03 e    :
          :  Broyden damping             0.4000000          :
          ...................................................

 iter      E             dE          RMSdq      gap      omega  full diag
   1    -18.1401393 -0.181401E+02  0.265E-05    4.07       0.0  T
   2    -18.1401393 -0.856204E-12  0.162E-05    4.07    1544.2  T
   3    -18.1401393  0.152767E-12  0.910E-06    4.07    2745.9  T

   *** convergence criteria satisfied after 3 iterations ***

         #    Occupation            Energy/Eh            Energy/eV
      -------------------------------------------------------------
         1        2.0000           -0.6192023             -16.8494
       ...           ...                  ...                  ...
        11        2.0000           -0.4638356             -12.6216
        12        2.0000           -0.4576980             -12.4546
        13        2.0000           -0.4397944             -11.9674
        14        2.0000           -0.4286386             -11.6638
        15        2.0000           -0.4209722             -11.4552
        16        2.0000           -0.3786219             -10.3028
        17        2.0000           -0.3753686             -10.2143 (HOMO)
        18                         -0.2258489              -6.1457 (LUMO)
        19                         -0.2089459              -5.6857
        20                         -0.1166410              -3.1740
        21                          0.1317164               3.5842
        22                          0.1389428               3.7808
       ...                                ...                  ...
        34                          0.5621878              15.2979
      -------------------------------------------------------------
                  HL-Gap            0.1495197 Eh            4.0686 eV
             Fermi-level           -0.3006087 Eh           -8.1800 eV

 SCC (total)                   0 d,  0 h,  0 min,  0.005 sec
 SCC setup                      ...        0 min,  0.000 sec (  1.889%)
 Dispersion                     ...        0 min,  0.000 sec (  0.890%)
 classical contributions        ...        0 min,  0.000 sec (  0.405%)
 integral evaluation            ...        0 min,  0.001 sec ( 19.239%)
 iterations                     ...        0 min,  0.001 sec ( 26.352%)
 molecular gradient             ...        0 min,  0.003 sec ( 48.463%)
 printout                       ...        0 min,  0.000 sec (  2.511%)

         :::::::::::::::::::::::::::::::::::::::::::::::::::::
         ::                     SUMMARY                     ::
         :::::::::::::::::::::::::::::::::::::::::::::::::::::
         :: total energy             -17.817358713035 Eh    ::
         :: gradient norm              0.000417348109 Eh/a0 ::
         :: HOMO-LUMO gap              4.068638257577 eV    ::
         ::.................................................::
         :: SCC energy               -18.140139344309 Eh    ::
         :: -> isotropic ES            0.002876364107 Eh    ::
         :: -> anisotropic ES          0.006551801223 Eh    ::
         :: -> anisotropic XC          0.015462380936 Eh    ::
         :: -> dispersion             -0.011216980691 Eh    ::
         :: repulsion energy           0.322646110129 Eh    ::
         :: add. restraining           0.000107496437 Eh    ::
         :: total charge              -0.000000000000 e     ::
         :::::::::::::::::::::::::::::::::::::::::::::::::::::

           -------------------------------------------------
          |                Property Printout                |
           -------------------------------------------------

    * Orbital Energies and Occupations

         #    Occupation            Energy/Eh            Energy/eV
      -------------------------------------------------------------
         1        2.0000           -0.6192023             -16.8494
       ...           ...                  ...                  ...
         5        2.0000           -0.5489462             -14.9376
         6        2.0000           -0.5210673             -14.1790
         7        2.0000           -0.5152592             -14.0209
         8        2.0000           -0.5039404             -13.7129
         9        2.0000           -0.4764212             -12.9641
        10        2.0000           -0.4674951             -12.7212
        11        2.0000           -0.4638356             -12.6216
        12        2.0000           -0.4576980             -12.4546
        13        2.0000           -0.4397944             -11.9674
        14        2.0000           -0.4286386             -11.6638
        15        2.0000           -0.4209722             -11.4552
        16        2.0000           -0.3786219             -10.3028
        17        2.0000           -0.3753686             -10.2143 (HOMO)
        18                         -0.2258489              -6.1457 (LUMO)
        19                         -0.2089459              -5.6857
        20                         -0.1166410              -3.1740
        21                          0.1317164               3.5842
        22                          0.1389428               3.7808
        23                          0.1517848               4.1303
        24                          0.1729989               4.7075
        25                          0.1730862               4.7099
        26                          0.2019211               5.4946
        27                          0.2068825               5.6296
        28                          0.2984238               8.1205
       ...                                ...                  ...
        34                          0.5621878              15.2979
      -------------------------------------------------------------
                  HL-Gap            0.1495197 Eh            4.0686 eV
             Fermi-level           -0.3006087 Eh           -8.1800 eV

     #   Z          covCN         q      C6AA      α(0)
     1   6 C        2.900    -0.037    28.922     8.818
     2   6 C        2.900    -0.037    28.921     8.818
     3   6 C        3.045    -0.070    29.697     8.938
     4   6 C        3.031    -0.073    29.788     8.952
     5   6 C        3.031    -0.073    29.787     8.952
     6   6 C        3.045    -0.070    29.697     8.938
     7   1 H        0.925     0.025     2.658     2.549
     8   1 H        0.925     0.025     2.658     2.549
     9   1 H        0.926     0.047     2.353     2.399
    10   1 H        0.926     0.033     2.547     2.496
    11   1 H        0.926     0.039     2.456     2.451
    12   1 H        0.926     0.035     2.510     2.477
    13   1 H        0.926     0.039     2.456     2.451
    14   1 H        0.926     0.035     2.510     2.477
    15   1 H        0.926     0.033     2.548     2.496
    16   1 H        0.926     0.047     2.354     2.399

 Mol. C6AA /au·bohr⁶  :       2340.609863
 Mol. C8AA /au·bohr⁸  :      52955.356848
 Mol. α(0) /au        :         78.160524


Wiberg/Mayer (AO) data.
largest (>0.10) Wiberg bond orders for each atom

 ---------------------------------------------------------------------------
     #   Z sym  total        # sym  WBO       # sym  WBO       # sym  WBO
 ---------------------------------------------------------------------------
     1   6 C    3.990 --     6 C    1.463     2 C    1.427     7 H    0.968
     2   6 C    3.990 --     3 C    1.463     1 C    1.427     8 H    0.968
     3   6 C    3.992 --     2 C    1.463    10 H    0.983     9 H    0.967
                             4 C    0.430     6 C    0.119
     4   6 C    3.993 --     5 C    1.493    12 H    0.979    11 H    0.976
                             3 C    0.430
     5   6 C    3.993 --     4 C    1.493    14 H    0.979    13 H    0.976
                             6 C    0.430
     6   6 C    3.992 --     1 C    1.463    15 H    0.983    16 H    0.967
                             5 C    0.430     3 C    0.119
     7   1 H    0.999 --     1 C    0.968
     8   1 H    0.999 --     2 C    0.968
     9   1 H    0.998 --     3 C    0.967
    10   1 H    0.999 --     3 C    0.983
    11   1 H    0.998 --     4 C    0.976
    12   1 H    0.999 --     4 C    0.979
    13   1 H    0.998 --     5 C    0.976
    14   1 H    0.999 --     5 C    0.979
    15   1 H    0.999 --     6 C    0.983
    16   1 H    0.998 --     6 C    0.967
 ---------------------------------------------------------------------------

Topologies differ in total number of bonds
Writing topology from bond orders to xtbtopo.mol

molecular dipole:
                 x           y           z       tot (Debye)
 q only:        0.004       0.139      -0.083
   full:        0.014       0.179      -0.053       0.475
molecular quadrupole (traceless):
                xx          xy          yy          xz          yz          zz
 q only:        0.547      -0.256      -0.592      -0.174      -0.564       0.045
  q+dip:        1.789      -1.100      -1.968      -0.756      -3.275       0.179
   full:        1.032      -0.641      -1.338      -0.386      -1.783       0.306

           -------------------------------------------------
          |                Geometry Summary                 |
           -------------------------------------------------

      molecular mass/u    :       82.1438229
   center of mass at/Å    :       -0.0193811      -0.1434804      -0.0050260
  moments of inertia/u·Å² :        0.1141160E+03   0.1359543E+03   0.2106001E+03
rotational constants/cm⁻¹ :        0.1477237E+00   0.1239948E+00   0.8004571E-01

 * 14 selected distances

     #   Z          #   Z                                           value/Å
     1   6 C        2   6 C                                       1.3858922
     2   6 C        3   6 C                                       1.3834914
     4   6 C        5   6 C                                       1.3885065 (max)
     1   6 C        6   6 C                                       1.3834354
     1   6 C        7   1 H                                       1.0816807
     2   6 C        8   1 H                                       1.0817510
     3   6 C        9   1 H                                       1.0764465
     3   6 C       10   1 H                                       1.0787718
     4   6 C       11   1 H                                       1.0771548
     4   6 C       12   1 H                                       1.0767449
     5   6 C       13   1 H                                       1.0771644
     5   6 C       14   1 H                                       1.0769110
     6   6 C       15   1 H                                       1.0788028
     6   6 C       16   1 H                                       1.0761402 (min)

 * 2 distinct bonds (by element types)

   Z      Z             #   av. dist./Å        max./Å        min./Å
   1 H    6 C          10     1.0781568     1.0817510     1.0761402
   6 C    6 C           4     1.3853314     1.3885065     1.3834354


optimized geometry written to: xtbopt.xyz


           -------------------------------------------------
          | TOTAL ENERGY              -17.817358713035 Eh   |
          | GRADIENT NORM               0.000417348109 Eh/α |
          | HOMO-LUMO GAP               4.068638257577 eV   |
           -------------------------------------------------

------------------------------------------------------------------------
 * finished run on 2025/05/23 at 11:18:32.174     
------------------------------------------------------------------------
 total:
 * wall-time:     0 d,  0 h,  0 min,  0.403 sec
 *  cpu-time:     0 d,  0 h,  0 min,  0.403 sec
 * ratio c/w:     1.000 speedup
 SCF:
 * wall-time:     0 d,  0 h,  0 min,  0.009 sec
 *  cpu-time:     0 d,  0 h,  0 min,  0.009 sec
 * ratio c/w:     1.000 speedup
 ANC optimizer:
 * wall-time:     0 d,  0 h,  0 min,  0.386 sec
 *  cpu-time:     0 d,  0 h,  0 min,  0.386 sec
 * ratio c/w:     1.000 speedup

