      -----------------------------------------------------------      
     |                   =====================                   |     
     |                           x T B                           |     
     |                   =====================                   |     
     |                         S. Grimme                         |     
     |          Mulliken Center for Theoretical Chemistry        |     
     |                    University of Bonn                     |     
      -----------------------------------------------------------      

   * xtb version 6.6.1 (8d0f1dd) compiled by 'conda@1efc2f54142f' on 2023-08-01

   xtb is free software: you can redistribute it and/or modify it under
   the terms of the GNU Lesser General Public License as published by
   the Free Software Foundation, either version 3 of the License, or
   (at your option) any later version.
   
   xtb is distributed in the hope that it will be useful,
   but WITHOUT ANY WARRANTY; without even the implied warranty of
   MERCHANTABILITY or FITNESS FOR A PARTICULAR PURPOSE.  See the
   GNU Lesser General Public License for more details.
   
   Cite this work as:
   * C. Bannwarth, E. Caldeweyher, S. Ehlert, A. Hansen, P. Pracht,
     J. Seibert, S. Spicher, S. Grimme, WIREs Comput. Mol. Sci., 2020, 11,
     e01493. DOI: 10.1002/wcms.1493
   
   for GFN2-xTB:
   * C. Bannwarth, S. Ehlert and S. Grimme., J. Chem. Theory Comput., 2019,
     15, 1652-1671. DOI: 10.1021/acs.jctc.8b01176
   for GFN1-xTB:
   * S. Grimme, C. Bannwarth, P. Shushkov, J. Chem. Theory Comput., 2017,
     13, 1989-2009. DOI: 10.1021/acs.jctc.7b00118
   for GFN0-xTB:
   * P. Pracht, E. Caldeweyher, S. Ehlert, S. Grimme, ChemRxiv, 2019, preprint.
     DOI: 10.26434/chemrxiv.8326202.v1
   for GFN-FF:
   * S. Spicher and S. Grimme, Angew. Chem. Int. Ed., 2020, 59, 15665-15673.
     DOI: 10.1002/anie.202004239
   
   for ALPB and GBSA implicit solvation:
   * S. Ehlert, M. Stahn, S. Spicher, S. Grimme, J. Chem. Theory Comput.,
     2021, 17, 4250-4261. DOI: 10.1021/acs.jctc.1c00471
   
   for DFT-D4:
   * E. Caldeweyher, C. Bannwarth and S. Grimme, J. Chem. Phys., 2017,
     147, 034112. DOI: 10.1063/1.4993215
   * E. Caldeweyher, S. Ehlert, A. Hansen, H. Neugebauer, S. Spicher,
     C. Bannwarth and S. Grimme, J. Chem. Phys., 2019, 150, 154122.
     DOI: 10.1063/1.5090222
   * E. Caldeweyher, J.-M. Mewes, S. Ehlert and S. Grimme, Phys. Chem. Chem. Phys.
     2020, 22, 8499-8512. DOI: 10.1039/D0CP00502A
   
   for sTDA-xTB:
   * S. Grimme and C. Bannwarth, J. Chem. Phys., 2016, 145, 054103.
     DOI: 10.1063/1.4959605
   
   in the mass-spec context:
   * V. Asgeirsson, C. Bauer and S. Grimme, Chem. Sci., 2017, 8, 4879.
     DOI: 10.1039/c7sc00601b
   * J. Koopman and S. Grimme, ACS Omega 2019, 4, 12, 15120-15133.
     DOI: 10.1021/acsomega.9b02011
   
   for metadynamics refer to:
   * S. Grimme, J. Chem. Theory Comput., 2019, 155, 2847-2862
     DOI: 10.1021/acs.jctc.9b00143
   
   for SPH calculations refer to:
   * S. Spicher and S. Grimme, J. Chem. Theory Comput., 2021, 17, 1701-1714
     DOI: 10.1021/acs.jctc.0c01306
   
   with help from (in alphabetical order)
   P. Atkinson, C. Bannwarth, F. Bohle, G. Brandenburg, E. Caldeweyher
   M. Checinski, S. Dohm, S. Ehlert, S. Ehrlich, I. Gerasimov, C. Hölzer
   A. Katbashev, J. Koopman, C. Lavigne, S. Lehtola, F. März, M. Müller,
   F. Musil, H. Neugebauer, J. Pisarek, C. Plett, P. Pracht, F. Pultar,
   J. Seibert, P. Shushkov, S. Spicher, M. Stahn, M. Steiner, T. Strunk,
   J. Stückrath, T. Rose, and J. Unsleber
   
 * started run on 2025/05/23 at 11:18:30.358     

           -------------------------------------------------
          |                Calculation Setup                |
           -------------------------------------------------

          program call               : /home/avcopan/code/other/saddle-search-practice/.pixi/envs/default/bin/xtb path_opt6_xtb.xyz --chrg 0 --uhf 0 --opt --input xcontrol_path_opt6_xtb
          coordinate file            : path_opt6_xtb.xyz
          omp threads                :                     1

   ID    Z sym.   atoms
    1    6 C      1-6
    2    1 H      7-16
constraining bond 3 4 to    1.9649000 Å, actual value:    1.9149181 Å
constraining bond 5 6 to    1.9650000 Å, actual value:    1.9150130 Å

           -------------------------------------------------
          |                 G F N 2 - x T B                 |
           -------------------------------------------------

        Reference                      10.1021/acs.jctc.8b01176
      * Hamiltonian:
        H0-scaling (s, p, d)           1.850000    2.230000    2.230000
        zeta-weighting                 0.500000
      * Dispersion:
        s8                             2.700000
        a1                             0.520000
        a2                             5.000000
        s9                             5.000000
      * Repulsion:
        kExp                           1.500000    1.000000
        rExp                           1.000000
      * Coulomb:
        alpha                          2.000000
        third order                    shell-resolved
        anisotropic                    true
        a3                             3.000000
        a5                             4.000000
        cn-shift                       1.200000
        cn-exp                         4.000000
        max-rad                        5.000000


          ...................................................
          :                      SETUP                      :
          :.................................................:
          :  # basis functions                  34          :
          :  # atomic orbitals                  34          :
          :  # shells                           22          :
          :  # electrons                        34          :
          :  max. iterations                   250          :
          :  Hamiltonian                  GFN2-xTB          :
          :  restarted?                      false          :
          :  GBSA solvation                  false          :
          :  PC potential                    false          :
          :  electronic temp.          300.0000000     K    :
          :  accuracy                    1.0000000          :
          :  -> integral cutoff          0.2500000E+02      :
          :  -> integral neglect         0.1000000E-07      :
          :  -> SCF convergence          0.1000000E-05 Eh   :
          :  -> wf. convergence          0.1000000E-03 e    :
          :  Broyden damping             0.4000000          :
          ...................................................

 iter      E             dE          RMSdq      gap      omega  full diag
   1    -18.1020396 -0.181020E+02  0.328E+00    4.99       0.0  T
   2    -18.1292305 -0.271910E-01  0.185E+00    4.94       1.0  T
   3    -18.1288653  0.365184E-03  0.705E-01    4.89       1.0  T
   4    -18.1284123  0.453087E-03  0.363E-01    4.90       1.0  T
   5    -18.1303799 -0.196765E-02  0.578E-02    4.90       1.0  T
   6    -18.1303813 -0.142803E-05  0.157E-02    4.90       1.6  T
   7    -18.1303815 -0.158209E-06  0.238E-03    4.90      10.5  T
   8    -18.1303815  0.161199E-08  0.997E-04    4.90      25.1  T
   9    -18.1303815 -0.102327E-07  0.325E-04    4.90      77.0  T

   *** convergence criteria satisfied after 9 iterations ***

         #    Occupation            Energy/Eh            Energy/eV
      -------------------------------------------------------------
         1        2.0000           -0.6149100             -16.7326
       ...           ...                  ...                  ...
        11        2.0000           -0.4682134             -12.7407
        12        2.0000           -0.4620389             -12.5727
        13        2.0000           -0.4406669             -11.9912
        14        2.0000           -0.4403596             -11.9828
        15        2.0000           -0.4016988             -10.9308
        16        2.0000           -0.3890585             -10.5868
        17        2.0000           -0.3757226             -10.2239 (HOMO)
        18                         -0.1956578              -5.3241 (LUMO)
        19                         -0.1569624              -4.2712
        20                         -0.1343598              -3.6561
        21                          0.1159772               3.1559
        22                          0.1336190               3.6360
       ...                                ...                  ...
        34                          0.6453691              17.5614
      -------------------------------------------------------------
                  HL-Gap            0.1800649 Eh            4.8998 eV
             Fermi-level           -0.2856902 Eh           -7.7740 eV

 SCC (total)                   0 d,  0 h,  0 min,  0.008 sec
 SCC setup                      ...        0 min,  0.000 sec (  1.855%)
 Dispersion                     ...        0 min,  0.000 sec (  1.115%)
 classical contributions        ...        0 min,  0.000 sec (  0.339%)
 integral evaluation            ...        0 min,  0.001 sec ( 14.088%)
 iterations                     ...        0 min,  0.004 sec ( 44.294%)
 molecular gradient             ...        0 min,  0.003 sec ( 34.393%)
 printout                       ...        0 min,  0.000 sec (  3.711%)

         :::::::::::::::::::::::::::::::::::::::::::::::::::::
         ::                     SUMMARY                     ::
         :::::::::::::::::::::::::::::::::::::::::::::::::::::
         :: total energy             -17.810145870815 Eh    ::
         :: gradient norm              0.586533470833 Eh/a0 ::
         :: HOMO-LUMO gap              4.899815140220 eV    ::
         ::.................................................::
         :: SCC energy               -18.130381508260 Eh    ::
         :: -> isotropic ES            0.002531231731 Eh    ::
         :: -> anisotropic ES          0.007008088812 Eh    ::
         :: -> anisotropic XC          0.013046236211 Eh    ::
         :: -> dispersion             -0.010008645876 Eh    ::
         :: repulsion energy           0.284520341689 Eh    ::
         :: add. restraining           0.035688382266 Eh    ::
         :: total charge              -0.000000000000 e     ::
         :::::::::::::::::::::::::::::::::::::::::::::::::::::

      ----------------------------------------------------------- 
     |                   =====================                   |
     |                        A N C O P T                        |
     |                   =====================                   |
     |               Approximate Normal Coordinate               |
     |                Rational Function Optimizer                |
      ----------------------------------------------------------- 

          ...................................................
          :                      SETUP                      :
          :.................................................:
          :   optimization level            normal          :
          :   max. optcycles                   200          :
          :   ANC micro-cycles                  20          :
          :   degrees of freedom                42          :
          :.................................................:
          :   RF solver                   davidson          :
          :   write xtbopt.log                true          :
          :   linear?                        false          :
          :   energy convergence         0.5000000E-05 Eh   :
          :   grad. convergence          0.1000000E-02 Eh/α :
          :   maxmium RF displ.          1.0000000          :
          :   Hlow (freq-cutoff)         0.1000000E-01      :
          :   Hmax (freq-cutoff)         5.0000000          :
          :   S6 in model hess.         20.0000000          :
          ...................................................

generating ANC from model Hessian ...
Using Lindh-Hessian (1995)
 Shifting diagonal of input Hessian by    6.6284096641893234E-002
 Lowest  eigenvalues of input Hessian
    0.010000    0.023325    0.034971    0.061978    0.000000    0.000000
    0.000000    0.000000    0.000000    0.000000    0.074777    0.078120
    0.080448    0.088013    0.089854    0.094628    0.096978    0.098168
 Highest eigenvalues
    1.233771    1.311118    1.546992    1.996460    8.507805    8.519025


........................................................................
.............................. CYCLE    1 ..............................
........................................................................

 iter      E             dE          RMSdq      gap      omega  full diag
   1    -18.1303815 -0.181304E+02  0.106E-04    4.90       0.0  T
   2    -18.1303815 -0.583711E-11  0.602E-05    4.90     415.5  T
   3    -18.1303815  0.131664E-10  0.413E-05    4.90     606.0  T
     SCC iter.                  ...        0 min,  0.001 sec
     gradient                   ...        0 min,  0.003 sec
 * total energy  :   -17.8101459 Eh     change       -0.7027623E-09 Eh
   gradient norm :     0.5865337 Eh/α   predicted     0.0000000E+00 (-100.00%)
   displ. norm   :     0.1237523 α      lambda       -0.6842641E-01
   maximum displ.:     0.1156681 α      in ANC's #41, #27, #11, ...

........................................................................
.............................. CYCLE    2 ..............................
........................................................................

 iter      E             dE          RMSdq      gap      omega  full diag
   1    -18.1174407 -0.181174E+02  0.124E-01    4.58       0.0  T
   2    -18.1174568 -0.160892E-04  0.727E-02    4.58       1.0  T
   3    -18.1174561  0.727770E-06  0.174E-02    4.58       1.4  T
   4    -18.1174562 -0.962578E-07  0.807E-03    4.58       3.1  T
   5    -18.1174572 -0.106747E-05  0.115E-03    4.58      21.8  T
   6    -18.1174573 -0.305975E-08  0.528E-04    4.58      47.3  T
   7    -18.1174573  0.754415E-09  0.264E-04    4.58      94.7  T
     SCC iter.                  ...        0 min,  0.002 sec
     gradient                   ...        0 min,  0.003 sec
 * total energy  :   -17.8237927 Eh     change       -0.1364686E-01 Eh
   gradient norm :     0.3545898 Eh/α   predicted    -0.3473716E-01 ( 154.54%)
   displ. norm   :     0.0450340 α      lambda       -0.1548841E-01
   maximum displ.:     0.0435650 α      in ANC's #41, #9, #2, ...

........................................................................
.............................. CYCLE    3 ..............................
........................................................................

 iter      E             dE          RMSdq      gap      omega  full diag
   1    -18.1203766 -0.181204E+02  0.643E-02    4.72       0.0  T
   2    -18.1203805 -0.383007E-05  0.368E-02    4.73       1.0  T
   3    -18.1203803  0.180135E-06  0.880E-03    4.72       2.8  T
   4    -18.1203803 -0.614527E-07  0.361E-03    4.72       6.9  T
   5    -18.1203806 -0.215530E-06  0.386E-04    4.72      64.8  T
   6    -18.1203806 -0.512507E-09  0.197E-04    4.72     126.8  T
     SCC iter.                  ...        0 min,  0.003 sec
     gradient                   ...        0 min,  0.003 sec
 * total energy  :   -17.8315732 Eh     change       -0.7780426E-02 Eh
   gradient norm :     0.0025054 Eh/α   predicted    -0.7759913E-02 (  -0.26%)
   displ. norm   :     0.0184707 α      lambda       -0.2833871E-04
   maximum displ.:     0.0102737 α      in ANC's #2, #9, #11, ...

........................................................................
.............................. CYCLE    4 ..............................
........................................................................

 iter      E             dE          RMSdq      gap      omega  full diag
   1    -18.1196799 -0.181197E+02  0.179E-02    4.73       0.0  T
   2    -18.1196800 -0.414390E-07  0.104E-02    4.73       2.4  T
   3    -18.1196799  0.115035E-06  0.287E-03    4.73       8.7  T
   4    -18.1196800 -0.127674E-06  0.508E-04    4.73      49.2  T
   5    -18.1196800 -0.283704E-08  0.163E-04    4.73     153.1  T
     SCC iter.                  ...        0 min,  0.002 sec
     gradient                   ...        0 min,  0.003 sec
 * total energy  :   -17.8315934 Eh     change       -0.2027773E-04 Eh
   gradient norm :     0.0015165 Eh/α   predicted    -0.1417587E-04 ( -30.09%)
   displ. norm   :     0.0775169 α      lambda       -0.4719096E-04
   maximum displ.:     0.0551025 α      in ANC's #1, #9, #11, ...

........................................................................
.............................. CYCLE    5 ..............................
........................................................................

 iter      E             dE          RMSdq      gap      omega  full diag
   1    -18.1169368 -0.181169E+02  0.882E-02    4.74       0.0  T
   2    -18.1169376 -0.821981E-06  0.517E-02    4.74       1.0  T
   3    -18.1169337  0.386482E-05  0.167E-02    4.74       1.5  T
   4    -18.1169380 -0.421567E-05  0.242E-03    4.74      10.3  T
   5    -18.1169380 -0.617229E-07  0.792E-04    4.74      31.6  T
   6    -18.1169380 -0.206666E-08  0.447E-04    4.74      55.9  T
     SCC iter.                  ...        0 min,  0.002 sec
     gradient                   ...        0 min,  0.003 sec
 * total energy  :   -17.8314901 Eh     change        0.1033532E-03 Eh
   gradient norm :     0.0075069 Eh/α   predicted    -0.2365795E-04 (-122.89%)
   displ. norm   :     0.0448905 α      lambda       -0.1672268E-03
   maximum displ.:     0.0435002 α      in ANC's #1, #4, #2, ...

........................................................................
.............................. CYCLE    6 ..............................
........................................................................

 iter      E             dE          RMSdq      gap      omega  full diag
   1    -18.1176139 -0.181176E+02  0.557E-02    4.73       0.0  T
   2    -18.1176141 -0.199682E-06  0.330E-02    4.73       1.0  T
   3    -18.1176118  0.229040E-05  0.127E-02    4.73       2.0  T
   4    -18.1176143 -0.249942E-05  0.120E-03    4.73      20.9  T
   5    -18.1176143 -0.126107E-07  0.523E-04    4.73      47.8  T
   6    -18.1176143 -0.118432E-08  0.274E-04    4.73      91.1  T
     SCC iter.                  ...        0 min,  0.002 sec
     gradient                   ...        0 min,  0.003 sec
 * total energy  :   -17.8315899 Eh     change       -0.9983469E-04 Eh
   gradient norm :     0.0031727 Eh/α   predicted    -0.8378361E-04 ( -16.08%)
   displ. norm   :     0.0474475 α      lambda       -0.8374716E-04
   maximum displ.:     0.0280297 α      in ANC's #2, #9, #11, ...

........................................................................
.............................. CYCLE    7 ..............................
........................................................................

 iter      E             dE          RMSdq      gap      omega  full diag
   1    -18.1200712 -0.181201E+02  0.623E-02    4.73       0.0  T
   2    -18.1200717 -0.459908E-06  0.364E-02    4.73       1.0  T
   3    -18.1200699  0.176586E-05  0.111E-02    4.73       2.2  T
   4    -18.1200719 -0.196510E-05  0.132E-03    4.73      19.0  T
   5    -18.1200719 -0.202636E-07  0.444E-04    4.73      56.3  T
   6    -18.1200719  0.291685E-09  0.313E-04    4.73      79.9  T
     SCC iter.                  ...        0 min,  0.002 sec
     gradient                   ...        0 min,  0.004 sec
 * total energy  :   -17.8315753 Eh     change        0.1465503E-04 Eh
   gradient norm :     0.0053300 Eh/α   predicted    -0.4196642E-04 (-386.36%)
   displ. norm   :     0.0268055 α      lambda       -0.7271599E-04
   maximum displ.:     0.0195381 α      in ANC's #2, #9, #11, ...

........................................................................
.............................. CYCLE    8 ..............................
........................................................................

 iter      E             dE          RMSdq      gap      omega  full diag
   1    -18.1190821 -0.181191E+02  0.394E-02    4.73       0.0  T
   2    -18.1190822 -0.911713E-07  0.231E-02    4.73       1.1  T
   3    -18.1190816  0.588524E-06  0.631E-03    4.73       4.0  T
   4    -18.1190822 -0.652602E-06  0.506E-04    4.73      49.4  T
   5    -18.1190822 -0.219582E-08  0.220E-04    4.73     113.6  T
     SCC iter.                  ...        0 min,  0.001 sec
     gradient                   ...        0 min,  0.003 sec
 * total energy  :   -17.8316118 Eh     change       -0.3651205E-04 Eh
   gradient norm :     0.0003518 Eh/α   predicted    -0.3638549E-04 (  -0.35%)
   displ. norm   :     0.0113586 α      lambda       -0.1924607E-05
   maximum displ.:     0.0078956 α      in ANC's #2, #9, #6, ...

........................................................................
.............................. CYCLE    9 ..............................
........................................................................

 iter      E             dE          RMSdq      gap      omega  full diag
   1    -18.1188982 -0.181189E+02  0.482E-03    4.73       0.0  T
   2    -18.1188982 -0.389481E-08  0.281E-03    4.73       8.9  T
   3    -18.1188982  0.458580E-08  0.644E-04    4.73      38.8  T
   4    -18.1188982 -0.499955E-08  0.209E-04    4.73     119.7  T
     SCC iter.                  ...        0 min,  0.001 sec
     gradient                   ...        0 min,  0.003 sec
 * total energy  :   -17.8316141 Eh     change       -0.2280163E-05 Eh
   gradient norm :     0.0005180 Eh/α   predicted    -0.9630024E-06 ( -57.77%)
   displ. norm   :     0.0408620 α      lambda       -0.6654229E-05
   maximum displ.:     0.0272875 α      in ANC's #2, #9, #6, ...

   *** GEOMETRY OPTIMIZATION CONVERGED AFTER 9 ITERATIONS ***

------------------------------------------------------------------------
 total energy gain   :        -0.0214682 Eh      -13.4715 kcal/mol
 total RMSD          :         0.0303206 a0        0.0160 Å
 total power (kW/mol):        -6.2627449 (step) -878.8081 (real)
------------------------------------------------------------------------

 ANCopt (total)                0 d,  0 h,  0 min,  0.064 sec
 optimizer setup                ...        0 min,  0.000 sec (  0.266%)
 model hessian                  ...        0 min,  0.005 sec (  8.227%)
 ANC generation                 ...        0 min,  0.000 sec (  0.479%)
 coordinate transformation      ...        0 min,  0.000 sec (  0.074%)
 single point calculation       ...        0 min,  0.056 sec ( 86.811%)
 optimization log               ...        0 min,  0.001 sec (  1.431%)
 hessian update                 ...        0 min,  0.000 sec (  0.104%)
 rational function              ...        0 min,  0.001 sec (  1.701%)

================
 final structure:
================
16
 xtb: 6.6.1 (8d0f1dd)
C           -0.89955556642965       -1.32351827819764       -0.19736742294940
C            0.40666909910618       -1.53765241346880       -0.26423122187424
C            1.50199018345729       -0.56131016206887       -0.11742634479593
C            0.81071248762504        1.26210260492024       -0.23633400437114
C           -0.36603736831486        1.32034313723869        0.65474255376808
C           -1.60692654836740       -0.04760831790602        0.01741311879332
H           -1.56472695427374       -2.17290511478853       -0.32577718512838
H            0.75067865804908       -2.55397507643667       -0.43499617577835
H            2.23584434833926       -0.61487298354112       -0.91279092544975
H            1.97223850442746       -0.58661518170668        0.85980541999340
H            0.58694756255640        1.39766602351825       -1.28593512789479
H            1.65679798329663        1.85929981338259        0.08595548619811
H           -0.95257699354695        2.22932254275017        0.57663384709753
H           -0.16625588322468        1.04594962229384        1.68179959394111
H           -2.36068716029359       -0.09883361710845        0.79410611837118
H           -2.00502235240645        0.38252740111901       -0.89537772992073

 Bond Distances (Angstroems)
 ---------------------------
C1-C2=1.3253         C1-C6=1.4746         C1-H7=1.0865         C2-C1=1.3253         C2-C3=1.4746         C2-H8=1.0865         
C3-C2=1.4746         C3-H9=1.0835         C3-H10=1.0848        C4-C5=1.4772         C4-H11=1.0817        C4-H12=1.0846        
C5-C4=1.4772         C5-H13=1.0846        C5-H14=1.0817        C6-C1=1.4746         C6-H15=1.0835        C6-H16=1.0848        
H7-C1=1.0865         H8-C2=1.0865         H9-C3=1.0835         H10-C3=1.0848        H11-C4=1.0817        H12-C4=1.0846        
H13-C5=1.0846        H14-C5=1.0817        H15-C6=1.0835        H16-C6=1.0848        
 C  H  Rav=1.0842 sigma=0.0016  Rmin=1.0817  Rmax=1.0865    10
 C  C  Rav=1.4379 sigma=0.0650  Rmin=1.3253  Rmax=1.4772     4

 selected bond angles (degree)
 --------------------
C6-C1-C2=128.31                H7-C1-C2=118.11                H7-C1-C6=113.58                C3-C2-C1=128.32                
H8-C2-C1=118.11                H8-C2-C3=113.57                H9-C3-C2=113.41                H10-C3-C2=113.34               
H10-C3-H9=111.50               H11-C4-C5=114.56               H12-C4-C5=114.86               H12-C4-H11=112.38              
H13-C5-C4=114.86               H14-C5-C4=114.56               H14-C5-H13=112.39              H15-C6-C1=113.40               
H16-C6-C1=113.36               H16-C6-H15=111.51              

 selected dihedral angles (degree)
 ---------------------------------
C3-C2-C1-C6=  1.22            C3-C2-C1-H7=180.34            H8-C2-C1-C6=180.32            H8-C2-C1-H7=359.44            
H9-C3-C2-C1=229.65            H9-C3-C2-H8= 50.51            H10-C3-C2-C1=101.20           H10-C3-C2-H8=282.06           
H13-C5-C4-H11=304.00          H13-C5-C4-H12= 76.30          H14-C5-C4-H11=171.68          H14-C5-C4-H12=303.99          
H15-C6-C1-C2=229.48           H15-C6-C1-H7= 50.32           H16-C6-C1-C2=101.00           H16-C6-C1-H7=281.85           
           -------------------------------------------------
          |                Final Singlepoint                |
           -------------------------------------------------

          ...................................................
          :                      SETUP                      :
          :.................................................:
          :  # basis functions                  34          :
          :  # atomic orbitals                  34          :
          :  # shells                           22          :
          :  # electrons                        34          :
          :  max. iterations                   250          :
          :  Hamiltonian                  GFN2-xTB          :
          :  restarted?                      false          :
          :  GBSA solvation                  false          :
          :  PC potential                    false          :
          :  electronic temp.          300.0000000     K    :
          :  accuracy                    1.0000000          :
          :  -> integral cutoff          0.2500000E+02      :
          :  -> integral neglect         0.1000000E-07      :
          :  -> SCF convergence          0.1000000E-05 Eh   :
          :  -> wf. convergence          0.1000000E-03 e    :
          :  Broyden damping             0.4000000          :
          ...................................................

 iter      E             dE          RMSdq      gap      omega  full diag
   1    -18.1188982 -0.181189E+02  0.575E-05    4.73       0.0  T
   2    -18.1188982 -0.153122E-11  0.319E-05    4.73     784.6  T
   3    -18.1188982  0.445155E-11  0.208E-05    4.73    1202.8  T

   *** convergence criteria satisfied after 3 iterations ***

         #    Occupation            Energy/Eh            Energy/eV
      -------------------------------------------------------------
         1        2.0000           -0.6144508             -16.7201
       ...           ...                  ...                  ...
        11        2.0000           -0.4680548             -12.7364
        12        2.0000           -0.4615687             -12.5599
        13        2.0000           -0.4411823             -12.0052
        14        2.0000           -0.4397227             -11.9655
        15        2.0000           -0.3993537             -10.8670
        16        2.0000           -0.3872779             -10.5384
        17        2.0000           -0.3733554             -10.1595 (HOMO)
        18                         -0.1994899              -5.4284 (LUMO)
        19                         -0.1679459              -4.5700
        20                         -0.1473168              -4.0087
        21                          0.1156277               3.1464
        22                          0.1335793               3.6349
       ...                                ...                  ...
        34                          0.6462445              17.5852
      -------------------------------------------------------------
                  HL-Gap            0.1738655 Eh            4.7311 eV
             Fermi-level           -0.2864227 Eh           -7.7940 eV

 SCC (total)                   0 d,  0 h,  0 min,  0.005 sec
 SCC setup                      ...        0 min,  0.000 sec (  1.815%)
 Dispersion                     ...        0 min,  0.000 sec (  0.848%)
 classical contributions        ...        0 min,  0.000 sec (  0.395%)
 integral evaluation            ...        0 min,  0.001 sec ( 23.456%)
 iterations                     ...        0 min,  0.001 sec ( 22.943%)
 molecular gradient             ...        0 min,  0.003 sec ( 46.638%)
 printout                       ...        0 min,  0.000 sec (  3.458%)

         :::::::::::::::::::::::::::::::::::::::::::::::::::::
         ::                     SUMMARY                     ::
         :::::::::::::::::::::::::::::::::::::::::::::::::::::
         :: total energy             -17.831614053467 Eh    ::
         :: gradient norm              0.000517896737 Eh/a0 ::
         :: HOMO-LUMO gap              4.731120764294 eV    ::
         ::.................................................::
         :: SCC energy               -18.118898237385 Eh    ::
         :: -> isotropic ES            0.002548414840 Eh    ::
         :: -> anisotropic ES          0.007205652768 Eh    ::
         :: -> anisotropic XC          0.013172557146 Eh    ::
         :: -> dispersion             -0.010230620860 Eh    ::
         :: repulsion energy           0.285457985435 Eh    ::
         :: add. restraining           0.001798077920 Eh    ::
         :: total charge              -0.000000000000 e     ::
         :::::::::::::::::::::::::::::::::::::::::::::::::::::

           -------------------------------------------------
          |                Property Printout                |
           -------------------------------------------------

    * Orbital Energies and Occupations

         #    Occupation            Energy/Eh            Energy/eV
      -------------------------------------------------------------
         1        2.0000           -0.6144508             -16.7201
       ...           ...                  ...                  ...
         5        2.0000           -0.5497881             -14.9605
         6        2.0000           -0.5192596             -14.1298
         7        2.0000           -0.5076407             -13.8136
         8        2.0000           -0.4914088             -13.3719
         9        2.0000           -0.4747285             -12.9180
        10        2.0000           -0.4728782             -12.8677
        11        2.0000           -0.4680548             -12.7364
        12        2.0000           -0.4615687             -12.5599
        13        2.0000           -0.4411823             -12.0052
        14        2.0000           -0.4397227             -11.9655
        15        2.0000           -0.3993537             -10.8670
        16        2.0000           -0.3872779             -10.5384
        17        2.0000           -0.3733554             -10.1595 (HOMO)
        18                         -0.1994899              -5.4284 (LUMO)
        19                         -0.1679459              -4.5700
        20                         -0.1473168              -4.0087
        21                          0.1156277               3.1464
        22                          0.1335793               3.6349
        23                          0.1557514               4.2382
        24                          0.1750897               4.7644
        25                          0.1947908               5.3005
        26                          0.2061640               5.6100
        27                          0.2201176               5.9897
        28                          0.2386199               6.4932
       ...                                ...                  ...
        34                          0.6462445              17.5852
      -------------------------------------------------------------
                  HL-Gap            0.1738655 Eh            4.7311 eV
             Fermi-level           -0.2864227 Eh           -7.7940 eV

     #   Z          covCN         q      C6AA      α(0)
     1   6 C        2.887    -0.036    28.892     8.812
     2   6 C        2.887    -0.036    28.892     8.812
     3   6 C        3.417    -0.069    25.189     7.697
     4   6 C        3.414    -0.063    25.117     7.695
     5   6 C        3.414    -0.063    25.122     7.696
     6   6 C        3.417    -0.069    25.194     7.699
     7   1 H        0.925     0.026     2.651     2.546
     8   1 H        0.925     0.026     2.651     2.546
     9   1 H        0.925     0.036     2.504     2.474
    10   1 H        0.925     0.040     2.449     2.447
    11   1 H        0.925     0.036     2.508     2.477
    12   1 H        0.925     0.031     2.575     2.509
    13   1 H        0.925     0.031     2.575     2.509
    14   1 H        0.925     0.036     2.508     2.477
    15   1 H        0.925     0.036     2.504     2.475
    16   1 H        0.925     0.040     2.448     2.447

 Mol. C6AA /au·bohr⁶  :       2181.944908
 Mol. C8AA /au·bohr⁸  :      48821.876007
 Mol. α(0) /au        :         73.318320


Wiberg/Mayer (AO) data.
largest (>0.10) Wiberg bond orders for each atom

 ---------------------------------------------------------------------------
     #   Z sym  total        # sym  WBO       # sym  WBO       # sym  WBO
 ---------------------------------------------------------------------------
     1   6 C    3.992 --     2 C    1.910     6 C    1.056     7 H    0.954
     2   6 C    3.992 --     1 C    1.910     3 C    1.056     8 H    0.954
     3   6 C    3.991 --     2 C    1.056     9 H    0.973    10 H    0.966
                             4 C    0.925
     4   6 C    3.993 --     5 C    1.071    11 H    0.984    12 H    0.973
                             3 C    0.925
     5   6 C    3.993 --     4 C    1.071    14 H    0.984    13 H    0.973
                             6 C    0.925
     6   6 C    3.991 --     1 C    1.056    15 H    0.973    16 H    0.966
                             5 C    0.925
     7   1 H    0.999 --     1 C    0.954
     8   1 H    0.999 --     2 C    0.954
     9   1 H    0.999 --     3 C    0.973
    10   1 H    0.998 --     3 C    0.966
    11   1 H    0.999 --     4 C    0.984
    12   1 H    0.999 --     4 C    0.973
    13   1 H    0.999 --     5 C    0.973
    14   1 H    0.999 --     5 C    0.984
    15   1 H    0.999 --     6 C    0.973
    16   1 H    0.998 --     6 C    0.966
 ---------------------------------------------------------------------------

Topologies differ in total number of bonds
Writing topology from bond orders to xtbtopo.mol

molecular dipole:
                 x           y           z       tot (Debye)
 q only:        0.013       0.078       0.012
   full:        0.014       0.080       0.013       0.209
molecular quadrupole (traceless):
                xx          xy          yy          xz          yz          zz
 q only:        0.703      -0.155      -0.210      -0.037       0.048      -0.493
  q+dip:        1.445      -0.296       0.063       0.329       0.191      -1.508
   full:        0.956      -0.210      -0.025       0.226       0.103      -0.931

           -------------------------------------------------
          |                Geometry Summary                 |
           -------------------------------------------------

      molecular mass/u    :       82.1438229
   center of mass at/Å    :       -0.0205123      -0.1188968      -0.0191787
  moments of inertia/u·Å² :        0.1168296E+03   0.1309151E+03   0.2250530E+03
rotational constants/cm⁻¹ :        0.1442924E+00   0.1287676E+00   0.7490517E-01

 * 12 selected distances

     #   Z          #   Z                                           value/Å
     1   6 C        2   6 C                                       1.3253480
     4   6 C        5   6 C                                       1.4772102 (max)
     1   6 C        7   1 H                                       1.0864623
     2   6 C        8   1 H                                       1.0864692
     3   6 C        9   1 H                                       1.0835202
     3   6 C       10   1 H                                       1.0847838
     4   6 C       11   1 H                                       1.0817167
     4   6 C       12   1 H                                       1.0846086
     5   6 C       13   1 H                                       1.0846075
     5   6 C       14   1 H                                       1.0816889 (min)
     6   6 C       15   1 H                                       1.0835273
     6   6 C       16   1 H                                       1.0847508

 * 2 distinct bonds (by element types)

   Z      Z             #   av. dist./Å        max./Å        min./Å
   1 H    6 C          10     1.0842135     1.0864692     1.0816889
   6 C    6 C           2     1.4012791     1.4772102     1.3253480


optimized geometry written to: xtbopt.xyz


           -------------------------------------------------
          | TOTAL ENERGY              -17.831614053467 Eh   |
          | GRADIENT NORM               0.000517896737 Eh/α |
          | HOMO-LUMO GAP               4.731120764294 eV   |
           -------------------------------------------------

------------------------------------------------------------------------
 * finished run on 2025/05/23 at 11:18:30.444     
------------------------------------------------------------------------
 total:
 * wall-time:     0 d,  0 h,  0 min,  0.086 sec
 *  cpu-time:     0 d,  0 h,  0 min,  0.086 sec
 * ratio c/w:     1.000 speedup
 SCF:
 * wall-time:     0 d,  0 h,  0 min,  0.008 sec
 *  cpu-time:     0 d,  0 h,  0 min,  0.008 sec
 * ratio c/w:     1.000 speedup
 ANC optimizer:
 * wall-time:     0 d,  0 h,  0 min,  0.070 sec
 *  cpu-time:     0 d,  0 h,  0 min,  0.070 sec
 * ratio c/w:     1.000 speedup

