      -----------------------------------------------------------      
     |                   =====================                   |     
     |                           x T B                           |     
     |                   =====================                   |     
     |                         S. Grimme                         |     
     |          Mulliken Center for Theoretical Chemistry        |     
     |                    University of Bonn                     |     
      -----------------------------------------------------------      

   * xtb version 6.6.1 (8d0f1dd) compiled by 'conda@1efc2f54142f' on 2023-08-01

   xtb is free software: you can redistribute it and/or modify it under
   the terms of the GNU Lesser General Public License as published by
   the Free Software Foundation, either version 3 of the License, or
   (at your option) any later version.
   
   xtb is distributed in the hope that it will be useful,
   but WITHOUT ANY WARRANTY; without even the implied warranty of
   MERCHANTABILITY or FITNESS FOR A PARTICULAR PURPOSE.  See the
   GNU Lesser General Public License for more details.
   
   Cite this work as:
   * C. Bannwarth, E. Caldeweyher, S. Ehlert, A. Hansen, P. Pracht,
     J. Seibert, S. Spicher, S. Grimme, WIREs Comput. Mol. Sci., 2020, 11,
     e01493. DOI: 10.1002/wcms.1493
   
   for GFN2-xTB:
   * C. Bannwarth, S. Ehlert and S. Grimme., J. Chem. Theory Comput., 2019,
     15, 1652-1671. DOI: 10.1021/acs.jctc.8b01176
   for GFN1-xTB:
   * S. Grimme, C. Bannwarth, P. Shushkov, J. Chem. Theory Comput., 2017,
     13, 1989-2009. DOI: 10.1021/acs.jctc.7b00118
   for GFN0-xTB:
   * P. Pracht, E. Caldeweyher, S. Ehlert, S. Grimme, ChemRxiv, 2019, preprint.
     DOI: 10.26434/chemrxiv.8326202.v1
   for GFN-FF:
   * S. Spicher and S. Grimme, Angew. Chem. Int. Ed., 2020, 59, 15665-15673.
     DOI: 10.1002/anie.202004239
   
   for ALPB and GBSA implicit solvation:
   * S. Ehlert, M. Stahn, S. Spicher, S. Grimme, J. Chem. Theory Comput.,
     2021, 17, 4250-4261. DOI: 10.1021/acs.jctc.1c00471
   
   for DFT-D4:
   * E. Caldeweyher, C. Bannwarth and S. Grimme, J. Chem. Phys., 2017,
     147, 034112. DOI: 10.1063/1.4993215
   * E. Caldeweyher, S. Ehlert, A. Hansen, H. Neugebauer, S. Spicher,
     C. Bannwarth and S. Grimme, J. Chem. Phys., 2019, 150, 154122.
     DOI: 10.1063/1.5090222
   * E. Caldeweyher, J.-M. Mewes, S. Ehlert and S. Grimme, Phys. Chem. Chem. Phys.
     2020, 22, 8499-8512. DOI: 10.1039/D0CP00502A
   
   for sTDA-xTB:
   * S. Grimme and C. Bannwarth, J. Chem. Phys., 2016, 145, 054103.
     DOI: 10.1063/1.4959605
   
   in the mass-spec context:
   * V. Asgeirsson, C. Bauer and S. Grimme, Chem. Sci., 2017, 8, 4879.
     DOI: 10.1039/c7sc00601b
   * J. Koopman and S. Grimme, ACS Omega 2019, 4, 12, 15120-15133.
     DOI: 10.1021/acsomega.9b02011
   
   for metadynamics refer to:
   * S. Grimme, J. Chem. Theory Comput., 2019, 155, 2847-2862
     DOI: 10.1021/acs.jctc.9b00143
   
   for SPH calculations refer to:
   * S. Spicher and S. Grimme, J. Chem. Theory Comput., 2021, 17, 1701-1714
     DOI: 10.1021/acs.jctc.0c01306
   
   with help from (in alphabetical order)
   P. Atkinson, C. Bannwarth, F. Bohle, G. Brandenburg, E. Caldeweyher
   M. Checinski, S. Dohm, S. Ehlert, S. Ehrlich, I. Gerasimov, C. Hölzer
   A. Katbashev, J. Koopman, C. Lavigne, S. Lehtola, F. März, M. Müller,
   F. Musil, H. Neugebauer, J. Pisarek, C. Plett, P. Pracht, F. Pultar,
   J. Seibert, P. Shushkov, S. Spicher, M. Stahn, M. Steiner, T. Strunk,
   J. Stückrath, T. Rose, and J. Unsleber
   
 * started run on 2025/05/23 at 11:18:31.237     

           -------------------------------------------------
          |                Calculation Setup                |
           -------------------------------------------------

          program call               : /home/avcopan/code/other/saddle-search-practice/.pixi/envs/default/bin/xtb path_opt9_xtb.xyz --chrg 0 --uhf 0 --opt --input xcontrol_path_opt9_xtb
          coordinate file            : path_opt9_xtb.xyz
          omp threads                :                     1

   ID    Z sym.   atoms
    1    6 C      1-6
    2    1 H      7-16
constraining bond 3 4 to    2.0813000 Å, actual value:    2.0313200 Å
constraining bond 5 6 to    2.0814000 Å, actual value:    2.0314048 Å

molecular fragmentation (1/2 indicates fragments):
1112211111222211
# atoms in fragment 1/2:    10     6
 fragment masses (1/2) :       54.09       28.05
CMA distance (Bohr)    :   4.445
constraining FC (au)   :  2.0000

           -------------------------------------------------
          |                 G F N 2 - x T B                 |
           -------------------------------------------------

        Reference                      10.1021/acs.jctc.8b01176
      * Hamiltonian:
        H0-scaling (s, p, d)           1.850000    2.230000    2.230000
        zeta-weighting                 0.500000
      * Dispersion:
        s8                             2.700000
        a1                             0.520000
        a2                             5.000000
        s9                             5.000000
      * Repulsion:
        kExp                           1.500000    1.000000
        rExp                           1.000000
      * Coulomb:
        alpha                          2.000000
        third order                    shell-resolved
        anisotropic                    true
        a3                             3.000000
        a5                             4.000000
        cn-shift                       1.200000
        cn-exp                         4.000000
        max-rad                        5.000000


          ...................................................
          :                      SETUP                      :
          :.................................................:
          :  # basis functions                  34          :
          :  # atomic orbitals                  34          :
          :  # shells                           22          :
          :  # electrons                        34          :
          :  max. iterations                   250          :
          :  Hamiltonian                  GFN2-xTB          :
          :  restarted?                      false          :
          :  GBSA solvation                  false          :
          :  PC potential                    false          :
          :  electronic temp.          300.0000000     K    :
          :  accuracy                    1.0000000          :
          :  -> integral cutoff          0.2500000E+02      :
          :  -> integral neglect         0.1000000E-07      :
          :  -> SCF convergence          0.1000000E-05 Eh   :
          :  -> wf. convergence          0.1000000E-03 e    :
          :  Broyden damping             0.4000000          :
          ...................................................

 iter      E             dE          RMSdq      gap      omega  full diag
   1    -18.0679927 -0.180680E+02  0.332E+00    4.19       0.0  T
   2    -18.0946356 -0.266428E-01  0.187E+00    4.17       1.0  T
   3    -18.0910876  0.354799E-02  0.849E-01    4.17       1.0  T
   4    -18.0917016 -0.614008E-03  0.561E-01    4.18       1.0  T
   5    -18.0963919 -0.469026E-02  0.610E-02    4.17       1.0  T
   6    -18.0963931 -0.125479E-05  0.170E-02    4.17       1.5  T
   7    -18.0963933 -0.182008E-06  0.273E-03    4.17       9.1  T
   8    -18.0963933 -0.396661E-08  0.147E-03    4.17      17.0  T
   9    -18.0963933 -0.168062E-07  0.587E-04    4.17      42.6  T
  10    -18.0963933 -0.301891E-08  0.177E-04    4.17     141.5  T

   *** convergence criteria satisfied after 10 iterations ***

         #    Occupation            Energy/Eh            Energy/eV
      -------------------------------------------------------------
         1        2.0000           -0.6138809             -16.7045
       ...           ...                  ...                  ...
        11        2.0000           -0.4677098             -12.7270
        12        2.0000           -0.4605706             -12.5328
        13        2.0000           -0.4422436             -12.0341
        14        2.0000           -0.4382923             -11.9265
        15        2.0000           -0.3953016             -10.7567
        16        2.0000           -0.3850296             -10.4772
        17        2.0000           -0.3665459              -9.9742 (HOMO)
        18                         -0.2131883              -5.8011 (LUMO)
        19                         -0.1804646              -4.9107
        20                         -0.1682650              -4.5787
        21                          0.1152792               3.1369
        22                          0.1333046               3.6274
       ...                                ...                  ...
        34                          0.6481002              17.6357
      -------------------------------------------------------------
                  HL-Gap            0.1533575 Eh            4.1731 eV
             Fermi-level           -0.2898671 Eh           -7.8877 eV

 SCC (total)                   0 d,  0 h,  0 min,  0.008 sec
 SCC setup                      ...        0 min,  0.000 sec (  1.688%)
 Dispersion                     ...        0 min,  0.000 sec (  0.999%)
 classical contributions        ...        0 min,  0.000 sec (  0.329%)
 integral evaluation            ...        0 min,  0.001 sec ( 12.861%)
 iterations                     ...        0 min,  0.004 sec ( 46.876%)
 molecular gradient             ...        0 min,  0.003 sec ( 35.131%)
 printout                       ...        0 min,  0.000 sec (  1.949%)

         :::::::::::::::::::::::::::::::::::::::::::::::::::::
         ::                     SUMMARY                     ::
         :::::::::::::::::::::::::::::::::::::::::::::::::::::
         :: total energy             -17.772878525822 Eh    ::
         :: gradient norm              0.586547914257 Eh/a0 ::
         :: HOMO-LUMO gap              4.173070636565 eV    ::
         ::.................................................::
         :: SCC energy               -18.096393314865 Eh    ::
         :: -> isotropic ES            0.002608367825 Eh    ::
         :: -> anisotropic ES          0.007516730285 Eh    ::
         :: -> anisotropic XC          0.013419521790 Eh    ::
         :: -> dispersion             -0.010677389385 Eh    ::
         :: repulsion energy           0.287791043570 Eh    ::
         :: add. restraining           0.035692928974 Eh    ::
         :: total charge               0.000000000000 e     ::
         :::::::::::::::::::::::::::::::::::::::::::::::::::::

      ----------------------------------------------------------- 
     |                   =====================                   |
     |                        A N C O P T                        |
     |                   =====================                   |
     |               Approximate Normal Coordinate               |
     |                Rational Function Optimizer                |
      ----------------------------------------------------------- 

          ...................................................
          :                      SETUP                      :
          :.................................................:
          :   optimization level            normal          :
          :   max. optcycles                   200          :
          :   ANC micro-cycles                  20          :
          :   degrees of freedom                42          :
          :.................................................:
          :   RF solver                   davidson          :
          :   write xtbopt.log                true          :
          :   linear?                        false          :
          :   energy convergence         0.5000000E-05 Eh   :
          :   grad. convergence          0.1000000E-02 Eh/α :
          :   maxmium RF displ.          1.0000000          :
          :   Hlow (freq-cutoff)         0.1000000E-01      :
          :   Hmax (freq-cutoff)         5.0000000          :
          :   S6 in model hess.         20.0000000          :
          ...................................................

generating ANC from model Hessian ...
Using Lindh-Hessian (1995)
 Shifting diagonal of input Hessian by    6.4263502183105128E-002
 Lowest  eigenvalues of input Hessian
    0.010000    0.023167    0.031938    0.059936    0.000000    0.000000
    0.000000    0.000000    0.000000    0.000000    0.070279    0.074559
    0.076764    0.085056    0.085437    0.091287    0.091544    0.092356
 Highest eigenvalues
    1.243327    1.355233    1.554477    2.002796    8.409583    8.422256


........................................................................
.............................. CYCLE    1 ..............................
........................................................................

 iter      E             dE          RMSdq      gap      omega  full diag
   1    -18.0963933 -0.180964E+02  0.854E-05    4.17       0.0  T
   2    -18.0963933 -0.404299E-11  0.542E-05    4.17     461.6  T
   3    -18.0963933 -0.122746E-10  0.379E-05    4.17     659.8  T
     SCC iter.                  ...        0 min,  0.002 sec
     gradient                   ...        0 min,  0.003 sec
 * total energy  :   -17.7728785 Eh     change       -0.2523635E-09 Eh
   gradient norm :     0.5865479 Eh/α   predicted     0.0000000E+00 (-100.00%)
   displ. norm   :     0.1233716 α      lambda       -0.6840520E-01
   maximum displ.:     0.1156722 α      in ANC's #41, #27, #10, ...

........................................................................
.............................. CYCLE    2 ..............................
........................................................................

 iter      E             dE          RMSdq      gap      omega  full diag
   1    -18.0834132 -0.180834E+02  0.146E-01    3.63       0.0  T
   2    -18.0834330 -0.198411E-04  0.836E-02    3.63       1.0  T
   3    -18.0834255  0.748296E-05  0.270E-02    3.64       1.0  T
   4    -18.0834273 -0.177657E-05  0.205E-02    3.64       1.2  T
   5    -18.0834341 -0.683274E-05  0.115E-03    3.64      21.8  T
   6    -18.0834341 -0.104714E-08  0.569E-04    3.64      43.9  T
   7    -18.0834341 -0.225484E-09  0.750E-05    3.64     333.3  T
     SCC iter.                  ...        0 min,  0.003 sec
     gradient                   ...        0 min,  0.003 sec
 * total energy  :   -17.7867527 Eh     change       -0.1387420E-01 Eh
   gradient norm :     0.3498302 Eh/α   predicted    -0.3472318E-01 ( 150.27%)
   displ. norm   :     0.0454501 α      lambda       -0.1516155E-01
   maximum displ.:     0.0431819 α      in ANC's #41, #9, #8, ...

........................................................................
.............................. CYCLE    3 ..............................
........................................................................

 iter      E             dE          RMSdq      gap      omega  full diag
   1    -18.0864288 -0.180864E+02  0.711E-02    3.84       0.0  T
   2    -18.0864330 -0.421077E-05  0.406E-02    3.84       1.0  T
   3    -18.0864291  0.395403E-05  0.177E-02    3.84       1.4  T
   4    -18.0864324 -0.334865E-05  0.869E-03    3.84       2.9  T
   5    -18.0864335 -0.112926E-05  0.440E-04    3.84      56.8  T
   6    -18.0864335 -0.224968E-09  0.231E-04    3.84     108.1  T
   7    -18.0864335 -0.496208E-10  0.222E-05    3.84    1125.6  T
     SCC iter.                  ...        0 min,  0.004 sec
     gradient                   ...        0 min,  0.003 sec
 * total energy  :   -17.7943851 Eh     change       -0.7632331E-02 Eh
   gradient norm :     0.0028223 Eh/α   predicted    -0.7596432E-02 (  -0.47%)
   displ. norm   :     0.0219685 α      lambda       -0.3523590E-04
   maximum displ.:     0.0141973 α      in ANC's #2, #9, #10, ...

........................................................................
.............................. CYCLE    4 ..............................
........................................................................

 iter      E             dE          RMSdq      gap      omega  full diag
   1    -18.0858492 -0.180858E+02  0.199E-02    3.84       0.0  T
   2    -18.0858492 -0.329413E-07  0.117E-02    3.84       2.1  T
   3    -18.0858490  0.213621E-06  0.367E-03    3.84       6.8  T
   4    -18.0858492 -0.226450E-06  0.628E-04    3.84      39.8  T
   5    -18.0858492 -0.504327E-08  0.160E-04    3.84     156.3  T
     SCC iter.                  ...        0 min,  0.002 sec
     gradient                   ...        0 min,  0.003 sec
 * total energy  :   -17.7944114 Eh     change       -0.2630996E-04 Eh
   gradient norm :     0.0016546 Eh/α   predicted    -0.1762555E-04 ( -33.01%)
   displ. norm   :     0.0564416 α      lambda       -0.4605436E-04
   maximum displ.:     0.0325662 α      in ANC's #9, #8, #10, ...

........................................................................
.............................. CYCLE    5 ..............................
........................................................................

 iter      E             dE          RMSdq      gap      omega  full diag
   1    -18.0837811 -0.180838E+02  0.574E-02    3.83       0.0  T
   2    -18.0837814 -0.292628E-06  0.334E-02    3.83       1.0  T
   3    -18.0837766  0.477388E-05  0.176E-02    3.83       1.4  T
   4    -18.0837818 -0.517293E-05  0.133E-03    3.83      18.7  T
   5    -18.0837818 -0.176874E-07  0.425E-04    3.83      58.9  T
   6    -18.0837818 -0.958131E-10  0.116E-04    3.83     216.1  T
     SCC iter.                  ...        0 min,  0.002 sec
     gradient                   ...        0 min,  0.004 sec
 * total energy  :   -17.7944150 Eh     change       -0.3606366E-05 Eh
   gradient norm :     0.0040266 Eh/α   predicted    -0.2306037E-04 ( 539.44%)
   displ. norm   :     0.0190383 α      lambda       -0.3181211E-04
   maximum displ.:     0.0166982 α      in ANC's #2, #4, #10, ...

........................................................................
.............................. CYCLE    6 ..............................
........................................................................

 iter      E             dE          RMSdq      gap      omega  full diag
   1    -18.0845239 -0.180845E+02  0.209E-02    3.83       0.0  T
   2    -18.0845239 -0.106547E-07  0.123E-02    3.83       2.0  T
   3    -18.0845232  0.676374E-06  0.650E-03    3.83       3.8  T
   4    -18.0845239 -0.728266E-06  0.309E-04    3.83      80.9  T
   5    -18.0845239 -0.537835E-09  0.148E-04    3.83     169.1  T
     SCC iter.                  ...        0 min,  0.002 sec
     gradient                   ...        0 min,  0.003 sec
 * total energy  :   -17.7944353 Eh     change       -0.2032937E-04 Eh
   gradient norm :     0.0013155 Eh/α   predicted    -0.1591111E-04 ( -21.73%)
   displ. norm   :     0.0236029 α      lambda       -0.1337126E-04
   maximum displ.:     0.0106615 α      in ANC's #1, #10, #2, ...

........................................................................
.............................. CYCLE    7 ..............................
........................................................................

 iter      E             dE          RMSdq      gap      omega  full diag
   1    -18.0857009 -0.180857E+02  0.241E-02    3.83       0.0  T
   2    -18.0857010 -0.578554E-07  0.141E-02    3.83       1.8  T
   3    -18.0856996  0.134272E-05  0.980E-03    3.83       2.6  T
   4    -18.0857011 -0.148475E-05  0.716E-04    3.83      34.9  T
   5    -18.0857011 -0.452910E-08  0.233E-04    3.83     107.4  T
   6    -18.0857011 -0.119901E-09  0.141E-04    3.83     177.1  T
     SCC iter.                  ...        0 min,  0.002 sec
     gradient                   ...        0 min,  0.003 sec
 * total energy  :   -17.7944410 Eh     change       -0.5715492E-05 Eh
   gradient norm :     0.0016806 Eh/α   predicted    -0.6688094E-05 (  17.02%)
   displ. norm   :     0.0500803 α      lambda       -0.1892359E-04
   maximum displ.:     0.0418472 α      in ANC's #1, #2, #6, ...

........................................................................
.............................. CYCLE    8 ..............................
........................................................................

 iter      E             dE          RMSdq      gap      omega  full diag
   1    -18.0865904 -0.180866E+02  0.530E-02    3.82       0.0  T
   2    -18.0865905 -0.387883E-07  0.315E-02    3.82       1.0  T
   3    -18.0865831  0.738979E-05  0.227E-02    3.82       1.1  T
   4    -18.0865912 -0.815975E-05  0.126E-03    3.82      19.8  T
   5    -18.0865913 -0.129772E-07  0.586E-04    3.82      42.7  T
   6    -18.0865913 -0.184720E-08  0.299E-04    3.82      83.5  T
     SCC iter.                  ...        0 min,  0.002 sec
     gradient                   ...        0 min,  0.003 sec
 * total energy  :   -17.7944151 Eh     change        0.2591586E-04 Eh
   gradient norm :     0.0043117 Eh/α   predicted    -0.9472885E-05 (-136.55%)
   displ. norm   :     0.0234140 α      lambda       -0.4871099E-04
   maximum displ.:     0.0183749 α      in ANC's #1, #9, #10, ...

........................................................................
.............................. CYCLE    9 ..............................
........................................................................

 iter      E             dE          RMSdq      gap      omega  full diag
   1    -18.0858749 -0.180859E+02  0.269E-02    3.82       0.0  T
   2    -18.0858749 -0.327010E-07  0.159E-02    3.82       1.6  T
   3    -18.0858732  0.169360E-05  0.108E-02    3.82       2.3  T
   4    -18.0858751 -0.185895E-05  0.668E-04    3.82      37.5  T
   5    -18.0858751 -0.363999E-08  0.291E-04    3.82      85.8  T
   6    -18.0858751 -0.439599E-09  0.150E-04    3.82     166.4  T
     SCC iter.                  ...        0 min,  0.002 sec
     gradient                   ...        0 min,  0.003 sec
 * total energy  :   -17.7944491 Eh     change       -0.3404540E-04 Eh
   gradient norm :     0.0018449 Eh/α   predicted    -0.2436720E-04 ( -28.43%)
   displ. norm   :     0.0346885 α      lambda       -0.1751631E-04
   maximum displ.:     0.0180653 α      in ANC's #1, #2, #8, ...

........................................................................
.............................. CYCLE   10 ..............................
........................................................................

 iter      E             dE          RMSdq      gap      omega  full diag
   1    -18.0852053 -0.180852E+02  0.277E-02    3.82       0.0  T
   2    -18.0852053 -0.239915E-07  0.164E-02    3.82       1.5  T
   3    -18.0852036  0.176631E-05  0.110E-02    3.82       2.3  T
   4    -18.0852055 -0.193532E-05  0.662E-04    3.82      37.7  T
   5    -18.0852055 -0.298125E-08  0.320E-04    3.82      78.1  T
   6    -18.0852055 -0.379913E-09  0.171E-04    3.82     146.2  T
     SCC iter.                  ...        0 min,  0.003 sec
     gradient                   ...        0 min,  0.003 sec
 * total energy  :   -17.7944603 Eh     change       -0.1111131E-04 Eh
   gradient norm :     0.0009895 Eh/α   predicted    -0.8764542E-05 ( -21.12%)
   displ. norm   :     0.0212334 α      lambda       -0.4852894E-05
   maximum displ.:     0.0134335 α      in ANC's #2, #6, #8, ...

........................................................................
.............................. CYCLE   11 ..............................
........................................................................

 iter      E             dE          RMSdq      gap      omega  full diag
   1    -18.0853911 -0.180854E+02  0.774E-03    3.82       0.0  T
   2    -18.0853911 -0.152579E-08  0.466E-03    3.82       5.4  T
   3    -18.0853910  0.157575E-06  0.316E-03    3.82       7.9  T
   4    -18.0853911 -0.172873E-06  0.213E-04    3.82     117.5  T
   5    -18.0853911 -0.165542E-09  0.107E-04    3.82     234.6  T
     SCC iter.                  ...        0 min,  0.002 sec
     gradient                   ...        0 min,  0.003 sec
 * total energy  :   -17.7944665 Eh     change       -0.6266604E-05 Eh
   gradient norm :     0.0006437 Eh/α   predicted    -0.2427285E-05 ( -61.27%)
   displ. norm   :     0.0862696 α      lambda       -0.1324657E-04
   maximum displ.:     0.0548688 α      in ANC's #2, #6, #8, ...

........................................................................
.............................. CYCLE   12 ..............................
........................................................................

 iter      E             dE          RMSdq      gap      omega  full diag
   1    -18.0855933 -0.180856E+02  0.256E-02    3.81       0.0  T
   2    -18.0855933 -0.249587E-07  0.156E-02    3.81       1.6  T
   3    -18.0855918  0.146836E-05  0.942E-03    3.81       2.7  T
   4    -18.0855934 -0.159633E-05  0.840E-04    3.81      29.8  T
   5    -18.0855934 -0.242255E-08  0.432E-04    3.81      57.9  T
   6    -18.0855934 -0.430617E-09  0.194E-04    3.81     128.8  T
     SCC iter.                  ...        0 min,  0.002 sec
     gradient                   ...        0 min,  0.003 sec
 * total energy  :   -17.7944767 Eh     change       -0.1022455E-04 Eh
   gradient norm :     0.0023377 Eh/α   predicted    -0.6644565E-05 ( -35.01%)
   displ. norm   :     0.0188954 α      lambda       -0.3338153E-05
   maximum displ.:     0.0110515 α      in ANC's #2, #6, #8, ...

........................................................................
.............................. CYCLE   13 ..............................
........................................................................

 iter      E             dE          RMSdq      gap      omega  full diag
   1    -18.0856020 -0.180856E+02  0.905E-03    3.81       0.0  T
   2    -18.0856020 -0.499059E-08  0.538E-03    3.81       4.6  T
   3    -18.0856019  0.100329E-06  0.268E-03    3.81       9.3  T
   4    -18.0856021 -0.108185E-06  0.346E-04    3.81      72.3  T
   5    -18.0856021 -0.144301E-08  0.138E-04    3.81     181.7  T
     SCC iter.                  ...        0 min,  0.002 sec
     gradient                   ...        0 min,  0.003 sec
 * total energy  :   -17.7944777 Eh     change       -0.9571812E-06 Eh
   gradient norm :     0.0015114 Eh/α   predicted    -0.1669919E-05 (  74.46%)
   displ. norm   :     0.0053176 α      lambda       -0.1082670E-05
   maximum displ.:     0.0043022 α      in ANC's #3, #9, #2, ...

........................................................................
.............................. CYCLE   14 ..............................
........................................................................

 iter      E             dE          RMSdq      gap      omega  full diag
   1    -18.0856295 -0.180856E+02  0.629E-03    3.82       0.0  T
   2    -18.0856295  0.121083E-08  0.375E-03    3.82       6.7  T
   3    -18.0856294  0.914379E-07  0.256E-03    3.82       9.7  T
   4    -18.0856295 -0.100298E-06  0.172E-04    3.82     145.7  T
   5    -18.0856295 -0.328534E-09  0.603E-05    3.82     414.8  T
     SCC iter.                  ...        0 min,  0.002 sec
     gradient                   ...        0 min,  0.003 sec
 * total energy  :   -17.7944785 Eh     change       -0.8092342E-06 Eh
   gradient norm :     0.0004461 Eh/α   predicted    -0.5419455E-06 ( -33.03%)
   displ. norm   :     0.0058850 α      lambda       -0.4124645E-06
   maximum displ.:     0.0028094 α      in ANC's #6, #2, #4, ...

   *** GEOMETRY OPTIMIZATION CONVERGED AFTER 14 ITERATIONS ***

------------------------------------------------------------------------
 total energy gain   :        -0.0216000 Eh      -13.5542 kcal/mol
 total RMSD          :         0.0678806 a0        0.0359 Å
 total power (kW/mol):        -4.0507686 (step) -549.1928 (real)
------------------------------------------------------------------------

 ANCopt (total)                0 d,  0 h,  0 min,  0.103 sec
 optimizer setup                ...        0 min,  0.000 sec (  0.096%)
 model hessian                  ...        0 min,  0.005 sec (  5.324%)
 ANC generation                 ...        0 min,  0.001 sec (  0.502%)
 coordinate transformation      ...        0 min,  0.000 sec (  0.104%)
 single point calculation       ...        0 min,  0.092 sec ( 89.448%)
 optimization log               ...        0 min,  0.002 sec (  1.663%)
 hessian update                 ...        0 min,  0.000 sec (  0.135%)
 rational function              ...        0 min,  0.002 sec (  1.514%)

================
 final structure:
================
16
 xtb: 6.6.1 (8d0f1dd)
C           -0.90556599835800       -1.35576852043709       -0.19812288450618
C            0.40155229741235       -1.56911625128763       -0.27090120007038
C            1.50909159054533       -0.61452501044146       -0.13589698226528
C            0.82561753137492        1.33831104929728       -0.20794010923639
C           -0.35435126368393        1.40029386039606        0.65464793001373
C           -1.63202835063090       -0.09745317846301        0.01378121541930
H           -1.56375307966053       -2.21307499460325       -0.31967555600299
H            0.73719622758485       -2.58959703910315       -0.44119036680881
H            2.21199818976790       -0.63010697514205       -0.95810619310752
H            1.99986108618362       -0.63699604731988        0.82911771861717
H            0.64710795806238        1.50065993017795       -1.26062441758670
H            1.70891007318145        1.84405738520166        0.16189641822463
H           -1.00317285637653        2.25478215601779        0.50685153494206
H           -0.18970695740067        1.16072004346429        1.69465250368682
H           -2.35206866305446       -0.13138585877422        0.82053370861677
H           -2.04062778494778        0.33912945101670       -0.88878331993623

 Bond Distances (Angstroems)
 ---------------------------
C1-C2=1.3264         C1-C6=1.4683         C1-H7=1.0876         C2-C1=1.3264         C2-C3=1.4684         C2-H8=1.0877         
C3-C2=1.4684         C3-H9=1.0818         C3-H10=1.0829        C4-C5=1.4630         C4-H11=1.0800        C4-H12=1.0829        
C5-C4=1.4630         C5-H13=1.0830        C5-H14=1.0799        C6-C1=1.4683         C6-H15=1.0819        C6-H16=1.0827        
H7-C1=1.0876         H8-C2=1.0877         H9-C3=1.0818         H10-C3=1.0829        H11-C4=1.0800        H12-C4=1.0829        
H13-C5=1.0830        H14-C5=1.0799        H15-C6=1.0819        H16-C6=1.0827        
 C  H  Rav=1.0830 sigma=0.0026  Rmin=1.0799  Rmax=1.0877    10
 C  C  Rav=1.4315 sigma=0.0607  Rmin=1.3264  Rmax=1.4684     4

 selected bond angles (degree)
 --------------------
C6-C1-C2=129.29                H7-C1-C2=117.61                H7-C1-C6=113.09                C3-C2-C1=129.32                
H8-C2-C1=117.62                H8-C2-C3=113.05                H9-C3-C2=114.26                H10-C3-C2=114.22               
H10-C3-H9=112.49               H11-C4-C5=115.79               H12-C4-C5=115.89               H12-C4-H11=113.42              
H13-C5-C4=115.86               H14-C5-C4=115.82               H14-C5-H13=113.44              H15-C6-C1=114.21               
H16-C6-C1=114.33               H16-C6-H15=112.53              

 selected dihedral angles (degree)
 ---------------------------------
C3-C2-C1-C6=  1.29            C3-C2-C1-H7=180.52            H8-C2-C1-C6=180.37            H8-C2-C1-H7=359.60            
H9-C3-C2-C1=233.05            H9-C3-C2-H8= 53.93            H10-C3-C2-C1=101.53           H10-C3-C2-H8=282.42           
H13-C5-C4-H11=311.83          H13-C5-C4-H12= 88.32          H14-C5-C4-H11=175.32          H14-C5-C4-H12=311.81          
H15-C6-C1-C2=232.26           H15-C6-C1-H7= 53.00           H16-C6-C1-C2=100.63           H16-C6-C1-H7=281.37           

 CMA Distance (Angstroems)
 ---------------------------
R(CMA):  2.3968
           -------------------------------------------------
          |                Final Singlepoint                |
           -------------------------------------------------

          ...................................................
          :                      SETUP                      :
          :.................................................:
          :  # basis functions                  34          :
          :  # atomic orbitals                  34          :
          :  # shells                           22          :
          :  # electrons                        34          :
          :  max. iterations                   250          :
          :  Hamiltonian                  GFN2-xTB          :
          :  restarted?                      false          :
          :  GBSA solvation                  false          :
          :  PC potential                    false          :
          :  electronic temp.          300.0000000     K    :
          :  accuracy                    1.0000000          :
          :  -> integral cutoff          0.2500000E+02      :
          :  -> integral neglect         0.1000000E-07      :
          :  -> SCF convergence          0.1000000E-05 Eh   :
          :  -> wf. convergence          0.1000000E-03 e    :
          :  Broyden damping             0.4000000          :
          ...................................................

 iter      E             dE          RMSdq      gap      omega  full diag
   1    -18.0856295 -0.180856E+02  0.321E-05    3.82       0.0  T
   2    -18.0856295 -0.351719E-12  0.194E-05    3.82    1288.5  T
   3    -18.0856295  0.344613E-12  0.160E-05    3.82    1560.2  T

   *** convergence criteria satisfied after 3 iterations ***

         #    Occupation            Energy/Eh            Energy/eV
      -------------------------------------------------------------
         1        2.0000           -0.6137353             -16.7006
       ...           ...                  ...                  ...
        11        2.0000           -0.4675096             -12.7216
        12        2.0000           -0.4598497             -12.5131
        13        2.0000           -0.4420817             -12.0297
        14        2.0000           -0.4377327             -11.9113
        15        2.0000           -0.3943016             -10.7295
        16        2.0000           -0.3841068             -10.4521
        17        2.0000           -0.3622475              -9.8573 (HOMO)
        18                         -0.2220086              -6.0412 (LUMO)
        19                         -0.1838866              -5.0038
        20                         -0.1756055              -4.7785
        21                          0.1151623               3.1337
        22                          0.1329611               3.6181
       ...                                ...                  ...
        34                          0.6493721              17.6703
      -------------------------------------------------------------
                  HL-Gap            0.1402389 Eh            3.8161 eV
             Fermi-level           -0.2921280 Eh           -7.9492 eV

 SCC (total)                   0 d,  0 h,  0 min,  0.008 sec
 SCC setup                      ...        0 min,  0.000 sec (  1.297%)
 Dispersion                     ...        0 min,  0.000 sec (  0.592%)
 classical contributions        ...        0 min,  0.000 sec (  0.280%)
 integral evaluation            ...        0 min,  0.002 sec ( 18.759%)
 iterations                     ...        0 min,  0.002 sec ( 23.649%)
 molecular gradient             ...        0 min,  0.004 sec ( 51.901%)
 printout                       ...        0 min,  0.000 sec (  3.316%)

         :::::::::::::::::::::::::::::::::::::::::::::::::::::
         ::                     SUMMARY                     ::
         :::::::::::::::::::::::::::::::::::::::::::::::::::::
         :: total energy             -17.794478513457 Eh    ::
         :: gradient norm              0.000446029537 Eh/a0 ::
         :: HOMO-LUMO gap              3.816093761366 eV    ::
         ::.................................................::
         :: SCC energy               -18.085629484897 Eh    ::
         :: -> isotropic ES            0.002660425231 Eh    ::
         :: -> anisotropic ES          0.007619974507 Eh    ::
         :: -> anisotropic XC          0.013546309947 Eh    ::
         :: -> dispersion             -0.010728062846 Eh    ::
         :: repulsion energy           0.289375758847 Eh    ::
         :: add. restraining           0.001743072553 Eh    ::
         :: total charge              -0.000000000000 e     ::
         :::::::::::::::::::::::::::::::::::::::::::::::::::::

           -------------------------------------------------
          |                Property Printout                |
           -------------------------------------------------

    * Orbital Energies and Occupations

         #    Occupation            Energy/Eh            Energy/eV
      -------------------------------------------------------------
         1        2.0000           -0.6137353             -16.7006
       ...           ...                  ...                  ...
         5        2.0000           -0.5474315             -14.8964
         6        2.0000           -0.5178429             -14.0912
         7        2.0000           -0.5056326             -13.7590
         8        2.0000           -0.4918213             -13.3831
         9        2.0000           -0.4756433             -12.9429
        10        2.0000           -0.4729241             -12.8689
        11        2.0000           -0.4675096             -12.7216
        12        2.0000           -0.4598497             -12.5131
        13        2.0000           -0.4420817             -12.0297
        14        2.0000           -0.4377327             -11.9113
        15        2.0000           -0.3943016             -10.7295
        16        2.0000           -0.3841068             -10.4521
        17        2.0000           -0.3622475              -9.8573 (HOMO)
        18                         -0.2220086              -6.0412 (LUMO)
        19                         -0.1838866              -5.0038
        20                         -0.1756055              -4.7785
        21                          0.1151623               3.1337
        22                          0.1329611               3.6181
        23                          0.1566986               4.2640
        24                          0.1806040               4.9145
        25                          0.1998073               5.4370
        26                          0.2101328               5.7180
        27                          0.2186172               5.9489
        28                          0.2465573               6.7092
       ...                                ...                  ...
        34                          0.6493721              17.6703
      -------------------------------------------------------------
                  HL-Gap            0.1402389 Eh            3.8161 eV
             Fermi-level           -0.2921280 Eh           -7.9492 eV

     #   Z          covCN         q      C6AA      α(0)
     1   6 C        2.887    -0.035    28.862     8.808
     2   6 C        2.887    -0.035    28.861     8.808
     3   6 C        3.180    -0.073    29.369     8.847
     4   6 C        3.178    -0.065    29.186     8.821
     5   6 C        3.177    -0.065    29.187     8.821
     6   6 C        3.180    -0.073    29.369     8.847
     7   1 H        0.925     0.028     2.619     2.531
     8   1 H        0.925     0.028     2.618     2.530
     9   1 H        0.925     0.037     2.491     2.468
    10   1 H        0.925     0.040     2.448     2.447
    11   1 H        0.926     0.035     2.516     2.481
    12   1 H        0.925     0.034     2.537     2.491
    13   1 H        0.925     0.034     2.537     2.491
    14   1 H        0.926     0.035     2.516     2.481
    15   1 H        0.925     0.037     2.494     2.469
    16   1 H        0.925     0.040     2.446     2.446

 Mol. C6AA /au·bohr⁶  :       2328.496009
 Mol. C8AA /au·bohr⁸  :      52595.844274
 Mol. α(0) /au        :         77.786335


Wiberg/Mayer (AO) data.
largest (>0.10) Wiberg bond orders for each atom

 ---------------------------------------------------------------------------
     #   Z sym  total        # sym  WBO       # sym  WBO       # sym  WBO
 ---------------------------------------------------------------------------
     1   6 C    3.992 --     2 C    1.903     6 C    1.065     7 H    0.949
     2   6 C    3.992 --     1 C    1.903     3 C    1.065     8 H    0.948
     3   6 C    3.989 --     2 C    1.065     9 H    0.972    10 H    0.967
                             4 C    0.889
     4   6 C    3.992 --     5 C    1.102    11 H    0.984    12 H    0.969
                             3 C    0.889
     5   6 C    3.992 --     4 C    1.102    14 H    0.984    13 H    0.969
                             6 C    0.889
     6   6 C    3.990 --     1 C    1.065    15 H    0.972    16 H    0.967
                             5 C    0.889
     7   1 H    0.999 --     1 C    0.949
     8   1 H    0.999 --     2 C    0.948
     9   1 H    0.999 --     3 C    0.972
    10   1 H    0.998 --     3 C    0.967
    11   1 H    0.999 --     4 C    0.984
    12   1 H    0.999 --     4 C    0.969
    13   1 H    0.999 --     5 C    0.969
    14   1 H    0.999 --     5 C    0.984
    15   1 H    0.999 --     6 C    0.972
    16   1 H    0.998 --     6 C    0.967
 ---------------------------------------------------------------------------

Topologies differ in total number of bonds
Writing topology from bond orders to xtbtopo.mol

molecular dipole:
                 x           y           z       tot (Debye)
 q only:        0.011       0.061       0.009
   full:        0.011       0.056       0.008       0.145
molecular quadrupole (traceless):
                xx          xy          yy          xz          yz          zz
 q only:        0.687      -0.130      -0.102      -0.063       0.083      -0.585
  q+dip:        1.440      -0.265       0.202       0.276       0.232      -1.642
   full:        0.936      -0.176       0.136       0.198       0.151      -1.072

           -------------------------------------------------
          |                Geometry Summary                 |
           -------------------------------------------------

      molecular mass/u    :       82.1438229
   center of mass at/Å    :       -0.0208525      -0.1203185      -0.0193431
  moments of inertia/u·Å² :        0.1182368E+03   0.1400905E+03   0.2363367E+03
rotational constants/cm⁻¹ :        0.1425752E+00   0.1203338E+00   0.7132887E-01

 * 12 selected distances

     #   Z          #   Z                                           value/Å
     1   6 C        2   6 C                                       1.3264134
     4   6 C        5   6 C                                       1.4629514 (max)
     1   6 C        7   1 H                                       1.0876396
     2   6 C        8   1 H                                       1.0876748
     3   6 C        9   1 H                                       1.0818266
     3   6 C       10   1 H                                       1.0828727
     4   6 C       11   1 H                                       1.0799849
     4   6 C       12   1 H                                       1.0829424
     5   6 C       13   1 H                                       1.0830345
     5   6 C       14   1 H                                       1.0798672 (min)
     6   6 C       15   1 H                                       1.0818777
     6   6 C       16   1 H                                       1.0826730

 * 2 distinct bonds (by element types)

   Z      Z             #   av. dist./Å        max./Å        min./Å
   1 H    6 C          10     1.0830393     1.0876748     1.0798672
   6 C    6 C           2     1.3946824     1.4629514     1.3264134


optimized geometry written to: xtbopt.xyz


           -------------------------------------------------
          | TOTAL ENERGY              -17.794478513457 Eh   |
          | GRADIENT NORM               0.000446029537 Eh/α |
          | HOMO-LUMO GAP               3.816093761366 eV   |
           -------------------------------------------------

------------------------------------------------------------------------
 * finished run on 2025/05/23 at 11:18:31.365     
------------------------------------------------------------------------
 total:
 * wall-time:     0 d,  0 h,  0 min,  0.128 sec
 *  cpu-time:     0 d,  0 h,  0 min,  0.128 sec
 * ratio c/w:     1.000 speedup
 SCF:
 * wall-time:     0 d,  0 h,  0 min,  0.009 sec
 *  cpu-time:     0 d,  0 h,  0 min,  0.008 sec
 * ratio c/w:     1.000 speedup
 ANC optimizer:
 * wall-time:     0 d,  0 h,  0 min,  0.112 sec
 *  cpu-time:     0 d,  0 h,  0 min,  0.112 sec
 * ratio c/w:     1.000 speedup

