      -----------------------------------------------------------      
     |                   =====================                   |     
     |                           x T B                           |     
     |                   =====================                   |     
     |                         S. Grimme                         |     
     |          Mulliken Center for Theoretical Chemistry        |     
     |                    University of Bonn                     |     
      -----------------------------------------------------------      

   * xtb version 6.6.1 (8d0f1dd) compiled by 'conda@1efc2f54142f' on 2023-08-01

   xtb is free software: you can redistribute it and/or modify it under
   the terms of the GNU Lesser General Public License as published by
   the Free Software Foundation, either version 3 of the License, or
   (at your option) any later version.
   
   xtb is distributed in the hope that it will be useful,
   but WITHOUT ANY WARRANTY; without even the implied warranty of
   MERCHANTABILITY or FITNESS FOR A PARTICULAR PURPOSE.  See the
   GNU Lesser General Public License for more details.
   
   Cite this work as:
   * C. Bannwarth, E. Caldeweyher, S. Ehlert, A. Hansen, P. Pracht,
     J. Seibert, S. Spicher, S. Grimme, WIREs Comput. Mol. Sci., 2020, 11,
     e01493. DOI: 10.1002/wcms.1493
   
   for GFN2-xTB:
   * C. Bannwarth, S. Ehlert and S. Grimme., J. Chem. Theory Comput., 2019,
     15, 1652-1671. DOI: 10.1021/acs.jctc.8b01176
   for GFN1-xTB:
   * S. Grimme, C. Bannwarth, P. Shushkov, J. Chem. Theory Comput., 2017,
     13, 1989-2009. DOI: 10.1021/acs.jctc.7b00118
   for GFN0-xTB:
   * P. Pracht, E. Caldeweyher, S. Ehlert, S. Grimme, ChemRxiv, 2019, preprint.
     DOI: 10.26434/chemrxiv.8326202.v1
   for GFN-FF:
   * S. Spicher and S. Grimme, Angew. Chem. Int. Ed., 2020, 59, 15665-15673.
     DOI: 10.1002/anie.202004239
   
   for ALPB and GBSA implicit solvation:
   * S. Ehlert, M. Stahn, S. Spicher, S. Grimme, J. Chem. Theory Comput.,
     2021, 17, 4250-4261. DOI: 10.1021/acs.jctc.1c00471
   
   for DFT-D4:
   * E. Caldeweyher, C. Bannwarth and S. Grimme, J. Chem. Phys., 2017,
     147, 034112. DOI: 10.1063/1.4993215
   * E. Caldeweyher, S. Ehlert, A. Hansen, H. Neugebauer, S. Spicher,
     C. Bannwarth and S. Grimme, J. Chem. Phys., 2019, 150, 154122.
     DOI: 10.1063/1.5090222
   * E. Caldeweyher, J.-M. Mewes, S. Ehlert and S. Grimme, Phys. Chem. Chem. Phys.
     2020, 22, 8499-8512. DOI: 10.1039/D0CP00502A
   
   for sTDA-xTB:
   * S. Grimme and C. Bannwarth, J. Chem. Phys., 2016, 145, 054103.
     DOI: 10.1063/1.4959605
   
   in the mass-spec context:
   * V. Asgeirsson, C. Bauer and S. Grimme, Chem. Sci., 2017, 8, 4879.
     DOI: 10.1039/c7sc00601b
   * J. Koopman and S. Grimme, ACS Omega 2019, 4, 12, 15120-15133.
     DOI: 10.1021/acsomega.9b02011
   
   for metadynamics refer to:
   * S. Grimme, J. Chem. Theory Comput., 2019, 155, 2847-2862
     DOI: 10.1021/acs.jctc.9b00143
   
   for SPH calculations refer to:
   * S. Spicher and S. Grimme, J. Chem. Theory Comput., 2021, 17, 1701-1714
     DOI: 10.1021/acs.jctc.0c01306
   
   with help from (in alphabetical order)
   P. Atkinson, C. Bannwarth, F. Bohle, G. Brandenburg, E. Caldeweyher
   M. Checinski, S. Dohm, S. Ehlert, S. Ehrlich, I. Gerasimov, C. Hölzer
   A. Katbashev, J. Koopman, C. Lavigne, S. Lehtola, F. März, M. Müller,
   F. Musil, H. Neugebauer, J. Pisarek, C. Plett, P. Pracht, F. Pultar,
   J. Seibert, P. Shushkov, S. Spicher, M. Stahn, M. Steiner, T. Strunk,
   J. Stückrath, T. Rose, and J. Unsleber
   
 * started run on 2025/05/23 at 11:18:30.731     

           -------------------------------------------------
          |                Calculation Setup                |
           -------------------------------------------------

          program call               : /home/avcopan/code/other/saddle-search-practice/.pixi/envs/default/bin/xtb path_opt7_xtb.xyz --chrg 0 --uhf 0 --opt --input xcontrol_path_opt7_xtb
          coordinate file            : path_opt7_xtb.xyz
          omp threads                :                     1

   ID    Z sym.   atoms
    1    6 C      1-6
    2    1 H      7-16
constraining bond 3 4 to    2.0037000 Å, actual value:    1.9536709 Å
constraining bond 5 6 to    2.0038000 Å, actual value:    1.9537875 Å

           -------------------------------------------------
          |                 G F N 2 - x T B                 |
           -------------------------------------------------

        Reference                      10.1021/acs.jctc.8b01176
      * Hamiltonian:
        H0-scaling (s, p, d)           1.850000    2.230000    2.230000
        zeta-weighting                 0.500000
      * Dispersion:
        s8                             2.700000
        a1                             0.520000
        a2                             5.000000
        s9                             5.000000
      * Repulsion:
        kExp                           1.500000    1.000000
        rExp                           1.000000
      * Coulomb:
        alpha                          2.000000
        third order                    shell-resolved
        anisotropic                    true
        a3                             3.000000
        a5                             4.000000
        cn-shift                       1.200000
        cn-exp                         4.000000
        max-rad                        5.000000


          ...................................................
          :                      SETUP                      :
          :.................................................:
          :  # basis functions                  34          :
          :  # atomic orbitals                  34          :
          :  # shells                           22          :
          :  # electrons                        34          :
          :  max. iterations                   250          :
          :  Hamiltonian                  GFN2-xTB          :
          :  restarted?                      false          :
          :  GBSA solvation                  false          :
          :  PC potential                    false          :
          :  electronic temp.          300.0000000     K    :
          :  accuracy                    1.0000000          :
          :  -> integral cutoff          0.2500000E+02      :
          :  -> integral neglect         0.1000000E-07      :
          :  -> SCF convergence          0.1000000E-05 Eh   :
          :  -> wf. convergence          0.1000000E-03 e    :
          :  Broyden damping             0.4000000          :
          ...................................................

 iter      E             dE          RMSdq      gap      omega  full diag
   1    -18.0906487 -0.180906E+02  0.329E+00    4.79       0.0  T
   2    -18.1175968 -0.269481E-01  0.185E+00    4.76       1.0  T
   3    -18.1166120  0.984784E-03  0.735E-01    4.72       1.0  T
   4    -18.1160675  0.544528E-03  0.433E-01    4.74       1.0  T
   5    -18.1188925 -0.282505E-02  0.588E-02    4.73       1.0  T
   6    -18.1188939 -0.134526E-05  0.158E-02    4.73       1.6  T
   7    -18.1188940 -0.164664E-06  0.246E-03    4.73      10.2  T
   8    -18.1188940 -0.960311E-08  0.582E-04    4.73      42.9  T
   9    -18.1188940 -0.584816E-09  0.215E-04    4.73     116.5  T

   *** convergence criteria satisfied after 9 iterations ***

         #    Occupation            Energy/Eh            Energy/eV
      -------------------------------------------------------------
         1        2.0000           -0.6144506             -16.7201
       ...           ...                  ...                  ...
        11        2.0000           -0.4680551             -12.7364
        12        2.0000           -0.4615689             -12.5599
        13        2.0000           -0.4411821             -12.0052
        14        2.0000           -0.4397232             -11.9655
        15        2.0000           -0.3993537             -10.8670
        16        2.0000           -0.3872777             -10.5384
        17        2.0000           -0.3733553             -10.1595 (HOMO)
        18                         -0.1994908              -5.4284 (LUMO)
        19                         -0.1679465              -4.5701
        20                         -0.1473164              -4.0087
        21                          0.1156254               3.1463
        22                          0.1335764               3.6348
       ...                                ...                  ...
        34                          0.6462329              17.5849
      -------------------------------------------------------------
                  HL-Gap            0.1738646 Eh            4.7311 eV
             Fermi-level           -0.2864230 Eh           -7.7940 eV

 SCC (total)                   0 d,  0 h,  0 min,  0.008 sec
 SCC setup                      ...        0 min,  0.000 sec (  1.615%)
 Dispersion                     ...        0 min,  0.000 sec (  1.208%)
 classical contributions        ...        0 min,  0.000 sec (  0.323%)
 integral evaluation            ...        0 min,  0.001 sec ( 12.786%)
 iterations                     ...        0 min,  0.004 sec ( 47.483%)
 molecular gradient             ...        0 min,  0.003 sec ( 31.987%)
 printout                       ...        0 min,  0.000 sec (  4.368%)

         :::::::::::::::::::::::::::::::::::::::::::::::::::::
         ::                     SUMMARY                     ::
         :::::::::::::::::::::::::::::::::::::::::::::::::::::
         :: total energy             -17.797672149199 Eh    ::
         :: gradient norm              0.586770668403 Eh/a0 ::
         :: HOMO-LUMO gap              4.731095362915 eV    ::
         ::.................................................::
         :: SCC energy               -18.118894031812 Eh    ::
         :: -> isotropic ES            0.002548351291 Eh    ::
         :: -> anisotropic ES          0.007205716788 Eh    ::
         :: -> anisotropic XC          0.013172718983 Eh    ::
         :: -> dispersion             -0.010230612055 Eh    ::
         :: repulsion energy           0.285453371919 Eh    ::
         :: add. restraining           0.035740390057 Eh    ::
         :: total charge              -0.000000000000 e     ::
         :::::::::::::::::::::::::::::::::::::::::::::::::::::

      ----------------------------------------------------------- 
     |                   =====================                   |
     |                        A N C O P T                        |
     |                   =====================                   |
     |               Approximate Normal Coordinate               |
     |                Rational Function Optimizer                |
      ----------------------------------------------------------- 

          ...................................................
          :                      SETUP                      :
          :.................................................:
          :   optimization level            normal          :
          :   max. optcycles                   200          :
          :   ANC micro-cycles                  20          :
          :   degrees of freedom                42          :
          :.................................................:
          :   RF solver                   davidson          :
          :   write xtbopt.log                true          :
          :   linear?                        false          :
          :   energy convergence         0.5000000E-05 Eh   :
          :   grad. convergence          0.1000000E-02 Eh/α :
          :   maxmium RF displ.          1.0000000          :
          :   Hlow (freq-cutoff)         0.1000000E-01      :
          :   Hmax (freq-cutoff)         5.0000000          :
          :   S6 in model hess.         20.0000000          :
          ...................................................

generating ANC from model Hessian ...
Using Lindh-Hessian (1995)
 Shifting diagonal of input Hessian by    6.5986271718280046E-002
 Lowest  eigenvalues of input Hessian
    0.010000    0.023354    0.034074    0.061531    0.000000    0.000000
    0.000000    0.000000    0.000000    0.000000    0.073529    0.077201
    0.079512    0.087318    0.088581    0.093819    0.095339    0.096391
 Highest eigenvalues
    1.237391    1.325023    1.549689    1.998807    8.471496    8.482806


........................................................................
.............................. CYCLE    1 ..............................
........................................................................

 iter      E             dE          RMSdq      gap      omega  full diag
   1    -18.1188940 -0.181189E+02  0.103E-04    4.73       0.0  T
   2    -18.1188940 -0.843059E-11  0.632E-05    4.73     395.3  T
   3    -18.1188940 -0.799361E-11  0.454E-05    4.73     550.5  T
     SCC iter.                  ...        0 min,  0.001 sec
     gradient                   ...        0 min,  0.003 sec
 * total energy  :   -17.7976721 Eh     change       -0.3215312E-09 Eh
   gradient norm :     0.5867707 Eh/α   predicted     0.0000000E+00 (-100.00%)
   displ. norm   :     0.1237681 α      lambda       -0.6847464E-01
   maximum displ.:     0.1157166 α      in ANC's #41, #27, #11, ...

........................................................................
.............................. CYCLE    2 ..............................
........................................................................

 iter      E             dE          RMSdq      gap      omega  full diag
   1    -18.1058917 -0.181059E+02  0.129E-01    4.30       0.0  T
   2    -18.1059094 -0.177181E-04  0.746E-02    4.30       1.0  T
   3    -18.1059075  0.191223E-05  0.200E-02    4.30       1.2  T
   4    -18.1059075 -0.185495E-08  0.123E-02    4.30       2.0  T
   5    -18.1059100 -0.251660E-05  0.111E-03    4.30      22.5  T
   6    -18.1059100 -0.169510E-08  0.530E-04    4.30      47.1  T
   7    -18.1059100 -0.990212E-10  0.507E-05    4.30     492.9  T
     SCC iter.                  ...        0 min,  0.002 sec
     gradient                   ...        0 min,  0.003 sec
 * total energy  :   -17.8113640 Eh     change       -0.1369185E-01 Eh
   gradient norm :     0.3543819 Eh/α   predicted    -0.3476178E-01 ( 153.89%)
   displ. norm   :     0.0452800 α      lambda       -0.1547852E-01
   maximum displ.:     0.0435528 α      in ANC's #41, #9, #2, ...

........................................................................
.............................. CYCLE    3 ..............................
........................................................................

 iter      E             dE          RMSdq      gap      omega  full diag
   1    -18.1089103 -0.181089E+02  0.665E-02    4.48       0.0  T
   2    -18.1089144 -0.406757E-05  0.379E-02    4.48       1.0  T
   3    -18.1089138  0.589812E-06  0.104E-02    4.48       2.4  T
   4    -18.1089140 -0.191510E-06  0.582E-03    4.48       4.3  T
   5    -18.1089146 -0.555189E-06  0.382E-04    4.48      65.4  T
   6    -18.1089146 -0.236525E-09  0.201E-04    4.48     124.3  T
     SCC iter.                  ...        0 min,  0.002 sec
     gradient                   ...        0 min,  0.003 sec
 * total energy  :   -17.8191395 Eh     change       -0.7775459E-02 Eh
   gradient norm :     0.0024859 Eh/α   predicted    -0.7755127E-02 (  -0.26%)
   displ. norm   :     0.0197675 α      lambda       -0.3158316E-04
   maximum displ.:     0.0122563 α      in ANC's #2, #9, #11, ...

........................................................................
.............................. CYCLE    4 ..............................
........................................................................

 iter      E             dE          RMSdq      gap      omega  full diag
   1    -18.1082434 -0.181082E+02  0.184E-02    4.49       0.0  T
   2    -18.1082434 -0.368691E-07  0.108E-02    4.49       2.3  T
   3    -18.1082433  0.162879E-06  0.332E-03    4.49       7.5  T
   4    -18.1082434 -0.178251E-06  0.514E-04    4.49      48.6  T
   5    -18.1082434 -0.288277E-08  0.145E-04    4.49     172.6  T
     SCC iter.                  ...        0 min,  0.002 sec
     gradient                   ...        0 min,  0.004 sec
 * total energy  :   -17.8191629 Eh     change       -0.2347505E-04 Eh
   gradient norm :     0.0015622 Eh/α   predicted    -0.1579578E-04 ( -32.71%)
   displ. norm   :     0.0472560 α      lambda       -0.3712005E-04
   maximum displ.:     0.0327227 α      in ANC's #9, #11, #17, ...

........................................................................
.............................. CYCLE    5 ..............................
........................................................................

 iter      E             dE          RMSdq      gap      omega  full diag
   1    -18.1061709 -0.181062E+02  0.510E-02    4.49       0.0  T
   2    -18.1061713 -0.373682E-06  0.295E-02    4.49       1.0  T
   3    -18.1061699  0.143124E-05  0.100E-02    4.49       2.5  T
   4    -18.1061714 -0.157610E-05  0.140E-03    4.49      17.9  T
   5    -18.1061715 -0.250608E-07  0.362E-04    4.49      69.1  T
   6    -18.1061715  0.481464E-10  0.151E-04    4.49     165.5  T
     SCC iter.                  ...        0 min,  0.002 sec
     gradient                   ...        0 min,  0.003 sec
 * total energy  :   -17.8191603 Eh     change        0.2653212E-05 Eh
   gradient norm :     0.0035406 Eh/α   predicted    -0.1857841E-04 (-800.22%)
   displ. norm   :     0.0199318 α      lambda       -0.3280070E-04
   maximum displ.:     0.0175165 α      in ANC's #2, #1, #4, ...

........................................................................
.............................. CYCLE    6 ..............................
........................................................................

 iter      E             dE          RMSdq      gap      omega  full diag
   1    -18.1068392 -0.181068E+02  0.235E-02    4.49       0.0  T
   2    -18.1068393 -0.241595E-07  0.138E-02    4.49       1.8  T
   3    -18.1068389  0.314015E-06  0.459E-03    4.49       5.5  T
   4    -18.1068393 -0.342532E-06  0.349E-04    4.49      71.6  T
   5    -18.1068393 -0.770189E-09  0.182E-04    4.49     137.6  T
     SCC iter.                  ...        0 min,  0.002 sec
     gradient                   ...        0 min,  0.003 sec
 * total energy  :   -17.8191795 Eh     change       -0.1919726E-04 Eh
   gradient norm :     0.0012571 Eh/α   predicted    -0.1640781E-04 ( -14.53%)
   displ. norm   :     0.0451796 α      lambda       -0.1891684E-04
   maximum displ.:     0.0380760 α      in ANC's #1, #2, #11, ...

........................................................................
.............................. CYCLE    7 ..............................
........................................................................

 iter      E             dE          RMSdq      gap      omega  full diag
   1    -18.1082582 -0.181083E+02  0.539E-02    4.48       0.0  T
   2    -18.1082585 -0.262274E-06  0.317E-02    4.48       1.0  T
   3    -18.1082553  0.318241E-05  0.148E-02    4.48       1.7  T
   4    -18.1082588 -0.348745E-05  0.129E-03    4.48      19.4  T
   5    -18.1082588 -0.146503E-07  0.548E-04    4.48      45.6  T
   6    -18.1082588 -0.162830E-08  0.295E-04    4.48      84.9  T
     SCC iter.                  ...        0 min,  0.003 sec
     gradient                   ...        0 min,  0.003 sec
 * total energy  :   -17.8191434 Eh     change        0.3605830E-04 Eh
   gradient norm :     0.0049607 Eh/α   predicted    -0.9468416E-05 (-126.26%)
   displ. norm   :     0.0275852 α      lambda       -0.6369741E-04
   maximum displ.:     0.0267300 α      in ANC's #1, #2, #6, ...

........................................................................
.............................. CYCLE    8 ..............................
........................................................................

 iter      E             dE          RMSdq      gap      omega  full diag
   1    -18.1084153 -0.181084E+02  0.339E-02    4.49       0.0  T
   2    -18.1084154 -0.666880E-07  0.201E-02    4.49       1.2  T
   3    -18.1084141  0.126769E-05  0.939E-03    4.49       2.7  T
   4    -18.1084155 -0.138268E-05  0.730E-04    4.49      34.2  T
   5    -18.1084155 -0.460327E-08  0.325E-04    4.49      76.9  T
   6    -18.1084155 -0.482810E-09  0.170E-04    4.49     147.2  T
     SCC iter.                  ...        0 min,  0.002 sec
     gradient                   ...        0 min,  0.003 sec
 * total energy  :   -17.8191823 Eh     change       -0.3884892E-04 Eh
   gradient norm :     0.0016726 Eh/α   predicted    -0.3187211E-04 ( -17.96%)
   displ. norm   :     0.0345976 α      lambda       -0.1995983E-04
   maximum displ.:     0.0198531 α      in ANC's #9, #11, #1, ...

........................................................................
.............................. CYCLE    9 ..............................
........................................................................

 iter      E             dE          RMSdq      gap      omega  full diag
   1    -18.1068145 -0.181068E+02  0.333E-02    4.49       0.0  T
   2    -18.1068147 -0.185302E-06  0.193E-02    4.49       1.3  T
   3    -18.1068141  0.658398E-06  0.681E-03    4.49       3.7  T
   4    -18.1068148 -0.718875E-06  0.114E-03    4.49      21.9  T
   5    -18.1068148 -0.156033E-07  0.329E-04    4.49      76.0  T
   6    -18.1068148 -0.216229E-09  0.210E-04    4.49     118.9  T
     SCC iter.                  ...        0 min,  0.002 sec
     gradient                   ...        0 min,  0.004 sec
 * total energy  :   -17.8191858 Eh     change       -0.3515974E-05 Eh
   gradient norm :     0.0014391 Eh/α   predicted    -0.9985491E-05 ( 184.00%)
   displ. norm   :     0.0141397 α      lambda       -0.9415540E-05
   maximum displ.:     0.0072923 α      in ANC's #11, #15, #17, ...

........................................................................
.............................. CYCLE   10 ..............................
........................................................................

 iter      E             dE          RMSdq      gap      omega  full diag
   1    -18.1076640 -0.181077E+02  0.151E-02    4.49       0.0  T
   2    -18.1076640 -0.472803E-07  0.872E-03    4.49       2.9  T
   3    -18.1076639  0.138722E-06  0.314E-03    4.49       8.0  T
   4    -18.1076640 -0.151636E-06  0.569E-04    4.49      43.9  T
   5    -18.1076640 -0.412409E-08  0.123E-04    4.49     202.4  T
     SCC iter.                  ...        0 min,  0.002 sec
     gradient                   ...        0 min,  0.003 sec
 * total energy  :   -17.8191942 Eh     change       -0.8399298E-05 Eh
   gradient norm :     0.0005356 Eh/α   predicted    -0.4708406E-05 ( -43.94%)
   displ. norm   :     0.0151200 α      lambda       -0.2884256E-05
   maximum displ.:     0.0099321 α      in ANC's #2, #6, #9, ...

........................................................................
.............................. CYCLE   11 ..............................
........................................................................

 iter      E             dE          RMSdq      gap      omega  full diag
   1    -18.1078305 -0.181078E+02  0.610E-03    4.48       0.0  T
   2    -18.1078305 -0.448177E-08  0.362E-03    4.48       6.9  T
   3    -18.1078304  0.388358E-07  0.160E-03    4.48      15.6  T
   4    -18.1078305 -0.429860E-07  0.188E-04    4.48     133.3  T
   5    -18.1078305 -0.242398E-09  0.886E-05    4.48     282.1  T
     SCC iter.                  ...        0 min,  0.002 sec
     gradient                   ...        0 min,  0.003 sec
 * total energy  :   -17.8191977 Eh     change       -0.3479207E-05 Eh
   gradient norm :     0.0004859 Eh/α   predicted    -0.1441829E-05 ( -58.56%)
   displ. norm   :     0.0497402 α      lambda       -0.6878324E-05
   maximum displ.:     0.0317036 α      in ANC's #2, #6, #9, ...

   *** GEOMETRY OPTIMIZATION CONVERGED AFTER 11 ITERATIONS ***

------------------------------------------------------------------------
 total energy gain   :        -0.0215255 Eh      -13.5075 kcal/mol
 total RMSD          :         0.0362506 a0        0.0192 Å
 total power (kW/mol):        -5.1377485 (step) -736.5143 (real)
------------------------------------------------------------------------

 ANCopt (total)                0 d,  0 h,  0 min,  0.077 sec
 optimizer setup                ...        0 min,  0.000 sec (  0.143%)
 model hessian                  ...        0 min,  0.005 sec (  6.209%)
 ANC generation                 ...        0 min,  0.000 sec (  0.372%)
 coordinate transformation      ...        0 min,  0.000 sec (  0.077%)
 single point calculation       ...        0 min,  0.068 sec ( 88.943%)
 optimization log               ...        0 min,  0.001 sec (  1.464%)
 hessian update                 ...        0 min,  0.000 sec (  0.143%)
 rational function              ...        0 min,  0.001 sec (  1.697%)

================
 final structure:
================
16
 xtb: 6.6.1 (8d0f1dd)
C           -0.90134289026035       -1.33324305044380       -0.19829123099706
C            0.40511450991534       -1.54725441107683       -0.26619690255471
C            1.50464909960458       -0.57880142799684       -0.12091320991351
C            0.81335482461008        1.28669990457591       -0.23065816970116
C           -0.36028172410160        1.34477878876369        0.65727398859791
C           -1.61531323435201       -0.06334420197861        0.01508005620182
H           -1.56441165969588       -2.18477420120061       -0.32594287684905
H            0.74651352032533       -2.56468896347211       -0.43751479417542
H            2.23199724852380       -0.62194363208959       -0.92190738240906
H            1.97693511390447       -0.59970599648511        0.85462057259714
H            0.59866436292742        1.42579752271666       -1.28100998281399
H            1.67177378351266        1.85946972351069        0.10102785817478
H           -0.96591159574904        2.23887276588766        0.56349330351272
H           -0.16802572577953        1.07608211653654        1.68656444533333
H           -2.36038802201860       -0.10898217697015        0.79949673692484
H           -2.01325761136667        0.37094723972249       -0.89491241192857

 Bond Distances (Angstroems)
 ---------------------------
C1-C2=1.3256         C1-C6=1.4724         C1-H7=1.0868         C2-C1=1.3256         C2-C3=1.4724         C2-H8=1.0868         
C3-C2=1.4724         C3-H9=1.0828         C3-H10=1.0840        C4-C5=1.4728         C4-H11=1.0811        C4-H12=1.0840        
C5-C4=1.4728         C5-H13=1.0840        C5-H14=1.0810        C6-C1=1.4724         C6-H15=1.0828        C6-H16=1.0840        
H7-C1=1.0868         H8-C2=1.0868         H9-C3=1.0828         H10-C3=1.0840        H11-C4=1.0811        H12-C4=1.0840        
H13-C5=1.0840        H14-C5=1.0810        H15-C6=1.0828        H16-C6=1.0840        
 C  H  Rav=1.0837 sigma=0.0019  Rmin=1.0810  Rmax=1.0868    10
 C  C  Rav=1.4358 sigma=0.0636  Rmin=1.3256  Rmax=1.4728     4

 selected bond angles (degree)
 --------------------
C6-C1-C2=128.65                H7-C1-C2=117.96                H7-C1-C6=113.39                C3-C2-C1=128.66                
H8-C2-C1=117.96                H8-C2-C3=113.37                H9-C3-C2=113.73                H10-C3-C2=113.67               
H10-C3-H9=111.86               H11-C4-C5=114.99               H12-C4-C5=115.20               H12-C4-H11=112.74              
H13-C5-C4=115.19               H14-C5-C4=114.99               H14-C5-H13=112.75              H15-C6-C1=113.72               
H16-C6-C1=113.70               H16-C6-H15=111.86              

 selected dihedral angles (degree)
 ---------------------------------
C3-C2-C1-C6=  1.32            C3-C2-C1-H7=180.42            H8-C2-C1-C6=180.39            H8-C2-C1-H7=359.48            
H9-C3-C2-C1=230.47            H9-C3-C2-H8= 51.37            H10-C3-C2-C1=100.93           H10-C3-C2-H8=281.83           
H13-C5-C4-H11=305.90          H13-C5-C4-H12= 79.58          H14-C5-C4-H11=172.20          H14-C5-C4-H12=305.89          
H15-C6-C1-C2=230.25           H15-C6-C1-H7= 51.12           H16-C6-C1-C2=100.67           H16-C6-C1-H7=281.55           
           -------------------------------------------------
          |                Final Singlepoint                |
           -------------------------------------------------

          ...................................................
          :                      SETUP                      :
          :.................................................:
          :  # basis functions                  34          :
          :  # atomic orbitals                  34          :
          :  # shells                           22          :
          :  # electrons                        34          :
          :  max. iterations                   250          :
          :  Hamiltonian                  GFN2-xTB          :
          :  restarted?                      false          :
          :  GBSA solvation                  false          :
          :  PC potential                    false          :
          :  electronic temp.          300.0000000     K    :
          :  accuracy                    1.0000000          :
          :  -> integral cutoff          0.2500000E+02      :
          :  -> integral neglect         0.1000000E-07      :
          :  -> SCF convergence          0.1000000E-05 Eh   :
          :  -> wf. convergence          0.1000000E-03 e    :
          :  Broyden damping             0.4000000          :
          ...................................................

 iter      E             dE          RMSdq      gap      omega  full diag
   1    -18.1078305 -0.181078E+02  0.502E-05    4.48       0.0  T
   2    -18.1078305 -0.262901E-12  0.402E-05    4.48     622.0  T
   3    -18.1078305 -0.153193E-10  0.178E-05    4.48    1407.3  T

   *** convergence criteria satisfied after 3 iterations ***

         #    Occupation            Energy/Eh            Energy/eV
      -------------------------------------------------------------
         1        2.0000           -0.6141379             -16.7115
       ...           ...                  ...                  ...
        11        2.0000           -0.4678806             -12.7317
        12        2.0000           -0.4611127             -12.5475
        13        2.0000           -0.4417814             -12.0215
        14        2.0000           -0.4389343             -11.9440
        15        2.0000           -0.3972377             -10.8094
        16        2.0000           -0.3859349             -10.5018
        17        2.0000           -0.3702093             -10.0739 (HOMO)
        18                         -0.2053900              -5.5889 (LUMO)
        19                         -0.1757222              -4.7816
        20                         -0.1584167              -4.3107
        21                          0.1154602               3.1418
        22                          0.1336298               3.6363
       ...                                ...                  ...
        34                          0.6475577              17.6209
      -------------------------------------------------------------
                  HL-Gap            0.1648194 Eh            4.4850 eV
             Fermi-level           -0.2877996 Eh           -7.8314 eV

 SCC (total)                   0 d,  0 h,  0 min,  0.006 sec
 SCC setup                      ...        0 min,  0.000 sec (  1.999%)
 Dispersion                     ...        0 min,  0.000 sec (  0.999%)
 classical contributions        ...        0 min,  0.000 sec (  0.427%)
 integral evaluation            ...        0 min,  0.001 sec ( 21.198%)
 iterations                     ...        0 min,  0.001 sec ( 22.377%)
 molecular gradient             ...        0 min,  0.003 sec ( 49.761%)
 printout                       ...        0 min,  0.000 sec (  2.955%)

         :::::::::::::::::::::::::::::::::::::::::::::::::::::
         ::                     SUMMARY                     ::
         :::::::::::::::::::::::::::::::::::::::::::::::::::::
         :: total energy             -17.819197664931 Eh    ::
         :: gradient norm              0.000485706405 Eh/a0 ::
         :: HOMO-LUMO gap              4.484962803691 eV    ::
         ::.................................................::
         :: SCC energy               -18.107830470852 Eh    ::
         :: -> isotropic ES            0.002577953482 Eh    ::
         :: -> anisotropic ES          0.007369831461 Eh    ::
         :: -> anisotropic XC          0.013289075525 Eh    ::
         :: -> dispersion             -0.010494329829 Eh    ::
         :: repulsion energy           0.286805247997 Eh    ::
         :: add. restraining           0.001798050759 Eh    ::
         :: total charge               0.000000000000 e     ::
         :::::::::::::::::::::::::::::::::::::::::::::::::::::

           -------------------------------------------------
          |                Property Printout                |
           -------------------------------------------------

    * Orbital Energies and Occupations

         #    Occupation            Energy/Eh            Energy/eV
      -------------------------------------------------------------
         1        2.0000           -0.6141379             -16.7115
       ...           ...                  ...                  ...
         5        2.0000           -0.5489196             -14.9369
         6        2.0000           -0.5188284             -14.1180
         7        2.0000           -0.5069167             -13.7939
         8        2.0000           -0.4913973             -13.3716
         9        2.0000           -0.4740220             -12.8988
        10        2.0000           -0.4737784             -12.8922
        11        2.0000           -0.4678806             -12.7317
        12        2.0000           -0.4611127             -12.5475
        13        2.0000           -0.4417814             -12.0215
        14        2.0000           -0.4389343             -11.9440
        15        2.0000           -0.3972377             -10.8094
        16        2.0000           -0.3859349             -10.5018
        17        2.0000           -0.3702093             -10.0739 (HOMO)
        18                         -0.2053900              -5.5889 (LUMO)
        19                         -0.1757222              -4.7816
        20                         -0.1584167              -4.3107
        21                          0.1154602               3.1418
        22                          0.1336298               3.6363
        23                          0.1557056               4.2370
        24                          0.1774551               4.8288
        25                          0.1967112               5.3528
        26                          0.2093502               5.6967
        27                          0.2197451               5.9796
        28                          0.2412998               6.5661
       ...                                ...                  ...
        34                          0.6475577              17.6209
      -------------------------------------------------------------
                  HL-Gap            0.1648194 Eh            4.4850 eV
             Fermi-level           -0.2877996 Eh           -7.8314 eV

     #   Z          covCN         q      C6AA      α(0)
     1   6 C        2.887    -0.035    28.881     8.811
     2   6 C        2.887    -0.035    28.881     8.811
     3   6 C        3.338    -0.070    27.089     8.238
     4   6 C        3.335    -0.064    26.989     8.230
     5   6 C        3.335    -0.064    26.993     8.231
     6   6 C        3.337    -0.070    27.092     8.239
     7   1 H        0.925     0.026     2.641     2.541
     8   1 H        0.925     0.026     2.641     2.541
     9   1 H        0.925     0.036     2.500     2.473
    10   1 H        0.925     0.040     2.448     2.447
    11   1 H        0.926     0.036     2.509     2.477
    12   1 H        0.925     0.032     2.564     2.504
    13   1 H        0.925     0.032     2.564     2.504
    14   1 H        0.926     0.036     2.509     2.477
    15   1 H        0.925     0.036     2.501     2.473
    16   1 H        0.925     0.040     2.447     2.446

 Mol. C6AA /au·bohr⁶  :       2250.810265
 Mol. C8AA /au·bohr⁸  :      50586.091509
 Mol. α(0) /au        :         75.442663


Wiberg/Mayer (AO) data.
largest (>0.10) Wiberg bond orders for each atom

 ---------------------------------------------------------------------------
     #   Z sym  total        # sym  WBO       # sym  WBO       # sym  WBO
 ---------------------------------------------------------------------------
     1   6 C    3.992 --     2 C    1.908     6 C    1.059     7 H    0.952
     2   6 C    3.992 --     1 C    1.908     3 C    1.059     8 H    0.952
     3   6 C    3.991 --     2 C    1.059     9 H    0.973    10 H    0.967
                             4 C    0.915
     4   6 C    3.992 --     5 C    1.079    11 H    0.984    12 H    0.971
                             3 C    0.915
     5   6 C    3.992 --     4 C    1.079    14 H    0.984    13 H    0.971
                             6 C    0.915
     6   6 C    3.991 --     1 C    1.059    15 H    0.973    16 H    0.967
                             5 C    0.915
     7   1 H    0.999 --     1 C    0.952
     8   1 H    0.999 --     2 C    0.952
     9   1 H    0.999 --     3 C    0.973
    10   1 H    0.998 --     3 C    0.967
    11   1 H    0.999 --     4 C    0.984
    12   1 H    0.999 --     4 C    0.971
    13   1 H    0.999 --     5 C    0.971
    14   1 H    0.999 --     5 C    0.984
    15   1 H    0.999 --     6 C    0.973
    16   1 H    0.998 --     6 C    0.967
 ---------------------------------------------------------------------------

Topologies differ in total number of bonds
Writing topology from bond orders to xtbtopo.mol

molecular dipole:
                 x           y           z       tot (Debye)
 q only:        0.012       0.072       0.011
   full:        0.013       0.073       0.012       0.190
molecular quadrupole (traceless):
                xx          xy          yy          xz          yz          zz
 q only:        0.693      -0.147      -0.177      -0.043       0.059      -0.517
  q+dip:        1.436      -0.283       0.119       0.319       0.209      -1.555
   full:        0.944      -0.197       0.033       0.222       0.120      -0.977

           -------------------------------------------------
          |                Geometry Summary                 |
           -------------------------------------------------

      molecular mass/u    :       82.1438229
   center of mass at/Å    :       -0.0206026      -0.1193686      -0.0192461
  moments of inertia/u·Å² :        0.1172932E+03   0.1337949E+03   0.2284512E+03
rotational constants/cm⁻¹ :        0.1437222E+00   0.1259961E+00   0.7379096E-01

 * 12 selected distances

     #   Z          #   Z                                           value/Å
     1   6 C        2   6 C                                       1.3256105
     4   6 C        5   6 C                                       1.4728272 (max)
     1   6 C        7   1 H                                       1.0867661
     2   6 C        8   1 H                                       1.0867734
     3   6 C        9   1 H                                       1.0828151
     3   6 C       10   1 H                                       1.0840468
     4   6 C       11   1 H                                       1.0810547
     4   6 C       12   1 H                                       1.0839577
     5   6 C       13   1 H                                       1.0839680
     5   6 C       14   1 H                                       1.0810177 (min)
     6   6 C       15   1 H                                       1.0828338
     6   6 C       16   1 H                                       1.0839997

 * 2 distinct bonds (by element types)

   Z      Z             #   av. dist./Å        max./Å        min./Å
   1 H    6 C          10     1.0837233     1.0867734     1.0810177
   6 C    6 C           2     1.3992188     1.4728272     1.3256105


optimized geometry written to: xtbopt.xyz


           -------------------------------------------------
          | TOTAL ENERGY              -17.819197664931 Eh   |
          | GRADIENT NORM               0.000485706405 Eh/α |
          | HOMO-LUMO GAP               4.484962803691 eV   |
           -------------------------------------------------

------------------------------------------------------------------------
 * finished run on 2025/05/23 at 11:18:30.829     
------------------------------------------------------------------------
 total:
 * wall-time:     0 d,  0 h,  0 min,  0.099 sec
 *  cpu-time:     0 d,  0 h,  0 min,  0.098 sec
 * ratio c/w:     1.000 speedup
 SCF:
 * wall-time:     0 d,  0 h,  0 min,  0.009 sec
 *  cpu-time:     0 d,  0 h,  0 min,  0.009 sec
 * ratio c/w:     1.000 speedup
 ANC optimizer:
 * wall-time:     0 d,  0 h,  0 min,  0.083 sec
 *  cpu-time:     0 d,  0 h,  0 min,  0.083 sec
 * ratio c/w:     1.000 speedup

