      -----------------------------------------------------------      
     |                   =====================                   |     
     |                           x T B                           |     
     |                   =====================                   |     
     |                         S. Grimme                         |     
     |          Mulliken Center for Theoretical Chemistry        |     
     |                    University of Bonn                     |     
      -----------------------------------------------------------      

   * xtb version 6.6.1 (8d0f1dd) compiled by 'conda@1efc2f54142f' on 2023-08-01

   xtb is free software: you can redistribute it and/or modify it under
   the terms of the GNU Lesser General Public License as published by
   the Free Software Foundation, either version 3 of the License, or
   (at your option) any later version.
   
   xtb is distributed in the hope that it will be useful,
   but WITHOUT ANY WARRANTY; without even the implied warranty of
   MERCHANTABILITY or FITNESS FOR A PARTICULAR PURPOSE.  See the
   GNU Lesser General Public License for more details.
   
   Cite this work as:
   * C. Bannwarth, E. Caldeweyher, S. Ehlert, A. Hansen, P. Pracht,
     J. Seibert, S. Spicher, S. Grimme, WIREs Comput. Mol. Sci., 2020, 11,
     e01493. DOI: 10.1002/wcms.1493
   
   for GFN2-xTB:
   * C. Bannwarth, S. Ehlert and S. Grimme., J. Chem. Theory Comput., 2019,
     15, 1652-1671. DOI: 10.1021/acs.jctc.8b01176
   for GFN1-xTB:
   * S. Grimme, C. Bannwarth, P. Shushkov, J. Chem. Theory Comput., 2017,
     13, 1989-2009. DOI: 10.1021/acs.jctc.7b00118
   for GFN0-xTB:
   * P. Pracht, E. Caldeweyher, S. Ehlert, S. Grimme, ChemRxiv, 2019, preprint.
     DOI: 10.26434/chemrxiv.8326202.v1
   for GFN-FF:
   * S. Spicher and S. Grimme, Angew. Chem. Int. Ed., 2020, 59, 15665-15673.
     DOI: 10.1002/anie.202004239
   
   for ALPB and GBSA implicit solvation:
   * S. Ehlert, M. Stahn, S. Spicher, S. Grimme, J. Chem. Theory Comput.,
     2021, 17, 4250-4261. DOI: 10.1021/acs.jctc.1c00471
   
   for DFT-D4:
   * E. Caldeweyher, C. Bannwarth and S. Grimme, J. Chem. Phys., 2017,
     147, 034112. DOI: 10.1063/1.4993215
   * E. Caldeweyher, S. Ehlert, A. Hansen, H. Neugebauer, S. Spicher,
     C. Bannwarth and S. Grimme, J. Chem. Phys., 2019, 150, 154122.
     DOI: 10.1063/1.5090222
   * E. Caldeweyher, J.-M. Mewes, S. Ehlert and S. Grimme, Phys. Chem. Chem. Phys.
     2020, 22, 8499-8512. DOI: 10.1039/D0CP00502A
   
   for sTDA-xTB:
   * S. Grimme and C. Bannwarth, J. Chem. Phys., 2016, 145, 054103.
     DOI: 10.1063/1.4959605
   
   in the mass-spec context:
   * V. Asgeirsson, C. Bauer and S. Grimme, Chem. Sci., 2017, 8, 4879.
     DOI: 10.1039/c7sc00601b
   * J. Koopman and S. Grimme, ACS Omega 2019, 4, 12, 15120-15133.
     DOI: 10.1021/acsomega.9b02011
   
   for metadynamics refer to:
   * S. Grimme, J. Chem. Theory Comput., 2019, 155, 2847-2862
     DOI: 10.1021/acs.jctc.9b00143
   
   for SPH calculations refer to:
   * S. Spicher and S. Grimme, J. Chem. Theory Comput., 2021, 17, 1701-1714
     DOI: 10.1021/acs.jctc.0c01306
   
   with help from (in alphabetical order)
   P. Atkinson, C. Bannwarth, F. Bohle, G. Brandenburg, E. Caldeweyher
   M. Checinski, S. Dohm, S. Ehlert, S. Ehrlich, I. Gerasimov, C. Hölzer
   A. Katbashev, J. Koopman, C. Lavigne, S. Lehtola, F. März, M. Müller,
   F. Musil, H. Neugebauer, J. Pisarek, C. Plett, P. Pracht, F. Pultar,
   J. Seibert, P. Shushkov, S. Spicher, M. Stahn, M. Steiner, T. Strunk,
   J. Stückrath, T. Rose, and J. Unsleber
   
 * started run on 2025/05/23 at 11:18:28.785     

           -------------------------------------------------
          |                Calculation Setup                |
           -------------------------------------------------

          program call               : /home/avcopan/code/other/saddle-search-practice/.pixi/envs/default/bin/xtb path_opt2_xtb.xyz --chrg 0 --uhf 0 --opt --input xcontrol_path_opt2_xtb
          coordinate file            : path_opt2_xtb.xyz
          omp threads                :                     1

   ID    Z sym.   atoms
    1    6 C      1-6
    2    1 H      7-16
constraining bond 3 4 to    1.8082000 Å, actual value:    1.7580997 Å
constraining bond 5 6 to    1.8082000 Å, actual value:    1.7580942 Å

           -------------------------------------------------
          |                 G F N 2 - x T B                 |
           -------------------------------------------------

        Reference                      10.1021/acs.jctc.8b01176
      * Hamiltonian:
        H0-scaling (s, p, d)           1.850000    2.230000    2.230000
        zeta-weighting                 0.500000
      * Dispersion:
        s8                             2.700000
        a1                             0.520000
        a2                             5.000000
        s9                             5.000000
      * Repulsion:
        kExp                           1.500000    1.000000
        rExp                           1.000000
      * Coulomb:
        alpha                          2.000000
        third order                    shell-resolved
        anisotropic                    true
        a3                             3.000000
        a5                             4.000000
        cn-shift                       1.200000
        cn-exp                         4.000000
        max-rad                        5.000000


          ...................................................
          :                      SETUP                      :
          :.................................................:
          :  # basis functions                  34          :
          :  # atomic orbitals                  34          :
          :  # shells                           22          :
          :  # electrons                        34          :
          :  max. iterations                   250          :
          :  Hamiltonian                  GFN2-xTB          :
          :  restarted?                      false          :
          :  GBSA solvation                  false          :
          :  PC potential                    false          :
          :  electronic temp.          300.0000000     K    :
          :  accuracy                    1.0000000          :
          :  -> integral cutoff          0.2500000E+02      :
          :  -> integral neglect         0.1000000E-07      :
          :  -> SCF convergence          0.1000000E-05 Eh   :
          :  -> wf. convergence          0.1000000E-03 e    :
          :  Broyden damping             0.4000000          :
          ...................................................

 iter      E             dE          RMSdq      gap      omega  full diag
   1    -18.1462279 -0.181462E+02  0.325E+00    5.27       0.0  T
   2    -18.1756574 -0.294295E-01  0.184E+00    5.20       1.0  T
   3    -18.1761475 -0.490056E-03  0.678E-01    5.16       1.0  T
   4    -18.1762167 -0.691769E-04  0.151E-01    5.15       1.0  T
   5    -18.1764726 -0.255946E-03  0.535E-02    5.16       1.0  T
   6    -18.1764750 -0.238463E-05  0.170E-02    5.16       1.5  T
   7    -18.1764752 -0.215790E-06  0.200E-03    5.16      12.5  T
   8    -18.1764752 -0.247275E-08  0.345E-04    5.16      72.5  T
   9    -18.1764752 -0.236493E-09  0.176E-04    5.16     142.0  T

   *** convergence criteria satisfied after 9 iterations ***

         #    Occupation            Energy/Eh            Energy/eV
      -------------------------------------------------------------
         1        2.0000           -0.6184765             -16.8296
       ...           ...                  ...                  ...
        11        2.0000           -0.4685346             -12.7495
        12        2.0000           -0.4641089             -12.6290
        13        2.0000           -0.4464819             -12.1494
        14        2.0000           -0.4362888             -11.8720
        15        2.0000           -0.4105527             -11.1717
        16        2.0000           -0.3989438             -10.8558
        17        2.0000           -0.3796245             -10.3301 (HOMO)
        18                         -0.1900620              -5.1719 (LUMO)
        19                         -0.0847157              -2.3052
        20                         -0.0626192              -1.7040
        21                          0.1175623               3.1990
        22                          0.1309501               3.5633
       ...                                ...                  ...
        34                          0.6423595              17.4795
      -------------------------------------------------------------
                  HL-Gap            0.1895625 Eh            5.1583 eV
             Fermi-level           -0.2848432 Eh           -7.7510 eV

 SCC (total)                   0 d,  0 h,  0 min,  0.008 sec
 SCC setup                      ...        0 min,  0.000 sec (  1.760%)
 Dispersion                     ...        0 min,  0.000 sec (  1.052%)
 classical contributions        ...        0 min,  0.000 sec (  0.343%)
 integral evaluation            ...        0 min,  0.001 sec ( 13.611%)
 iterations                     ...        0 min,  0.004 sec ( 46.370%)
 molecular gradient             ...        0 min,  0.003 sec ( 34.802%)
 printout                       ...        0 min,  0.000 sec (  1.898%)

         :::::::::::::::::::::::::::::::::::::::::::::::::::::
         ::                     SUMMARY                     ::
         :::::::::::::::::::::::::::::::::::::::::::::::::::::
         :: total energy             -17.857682838191 Eh    ::
         :: gradient norm              0.612664848236 Eh/a0 ::
         :: HOMO-LUMO gap              5.158257562414 eV    ::
         ::.................................................::
         :: SCC energy               -18.176475223382 Eh    ::
         :: -> isotropic ES            0.002521068652 Eh    ::
         :: -> anisotropic ES          0.005992216625 Eh    ::
         :: -> anisotropic XC          0.012515716250 Eh    ::
         :: -> dispersion             -0.009866974135 Eh    ::
         :: repulsion energy           0.282910767643 Eh    ::
         :: add. restraining           0.035857969931 Eh    ::
         :: total charge               0.000000000000 e     ::
         :::::::::::::::::::::::::::::::::::::::::::::::::::::

      ----------------------------------------------------------- 
     |                   =====================                   |
     |                        A N C O P T                        |
     |                   =====================                   |
     |               Approximate Normal Coordinate               |
     |                Rational Function Optimizer                |
      ----------------------------------------------------------- 

          ...................................................
          :                      SETUP                      :
          :.................................................:
          :   optimization level            normal          :
          :   max. optcycles                   200          :
          :   ANC micro-cycles                  20          :
          :   degrees of freedom                42          :
          :.................................................:
          :   RF solver                   davidson          :
          :   write xtbopt.log                true          :
          :   linear?                        false          :
          :   energy convergence         0.5000000E-05 Eh   :
          :   grad. convergence          0.1000000E-02 Eh/α :
          :   maxmium RF displ.          1.0000000          :
          :   Hlow (freq-cutoff)         0.1000000E-01      :
          :   Hmax (freq-cutoff)         5.0000000          :
          :   S6 in model hess.         20.0000000          :
          ...................................................

generating ANC from model Hessian ...
Using Lindh-Hessian (1995)
 Shifting diagonal of input Hessian by    6.3078178851082786E-002
 Lowest  eigenvalues of input Hessian
    0.010000    0.022292    0.039217    0.061892    0.000000    0.000000
    0.000000    0.000000    0.000000    0.000000    0.077951    0.078144
    0.081274    0.088976    0.093689    0.095280    0.100810    0.103127
 Highest eigenvalues
    1.213779    1.261362    1.535230    1.984306    8.700600    8.712628


........................................................................
.............................. CYCLE    1 ..............................
........................................................................

 iter      E             dE          RMSdq      gap      omega  full diag
   1    -18.1764752 -0.181765E+02  0.950E-05    5.16       0.0  T
   2    -18.1764752 -0.528644E-11  0.661E-05    5.16     378.4  T
   3    -18.1764752 -0.259064E-10  0.382E-05    5.16     654.4  T
     SCC iter.                  ...        0 min,  0.002 sec
     gradient                   ...        0 min,  0.003 sec
 * total energy  :   -17.8576828 Eh     change       -0.1648921E-09 Eh
   gradient norm :     0.6126649 Eh/α   predicted     0.0000000E+00 (-100.00%)
   displ. norm   :     0.1307071 α      lambda       -0.7467570E-01
   maximum displ.:     0.1206770 α      in ANC's #41, #27, #18, ...

........................................................................
.............................. CYCLE    2 ..............................
........................................................................

 iter      E             dE          RMSdq      gap      omega  full diag
   1    -18.1642171 -0.181642E+02  0.125E-01    5.09       0.0  T
   2    -18.1642294 -0.122706E-04  0.767E-02    5.09       1.0  T
   3    -18.1642293  0.117632E-06  0.131E-02    5.09       1.9  T
   4    -18.1642296 -0.351035E-06  0.312E-03    5.09       8.0  T
   5    -18.1642298 -0.109098E-06  0.126E-03    5.09      19.9  T
   6    -18.1642298 -0.369389E-08  0.475E-04    5.09      52.6  T
   7    -18.1642298  0.339373E-09  0.223E-04    5.09     112.0  T
     SCC iter.                  ...        0 min,  0.003 sec
     gradient                   ...        0 min,  0.003 sec
 * total energy  :   -17.8715837 Eh     change       -0.1390082E-01 Eh
   gradient norm :     0.3861014 Eh/α   predicted    -0.3797575E-01 ( 173.19%)
   displ. norm   :     0.0482307 α      lambda       -0.1805491E-01
   maximum displ.:     0.0466524 α      in ANC's #41, #2, #9, ...

........................................................................
.............................. CYCLE    3 ..............................
........................................................................

 iter      E             dE          RMSdq      gap      omega  full diag
   1    -18.1668376 -0.181668E+02  0.665E-02    5.12       0.0  T
   2    -18.1668412 -0.351233E-05  0.392E-02    5.12       1.0  T
   3    -18.1668411  0.165018E-07  0.758E-03    5.12       3.3  T
   4    -18.1668412 -0.700443E-07  0.107E-03    5.12      23.3  T
   5    -18.1668412 -0.133509E-07  0.403E-04    5.12      62.0  T
   6    -18.1668412 -0.723649E-09  0.204E-04    5.12     122.7  T
     SCC iter.                  ...        0 min,  0.002 sec
     gradient                   ...        0 min,  0.003 sec
 * total energy  :   -17.8806787 Eh     change       -0.9095014E-02 Eh
   gradient norm :     0.0033834 Eh/α   predicted    -0.9048451E-02 (  -0.51%)
   displ. norm   :     0.0161463 α      lambda       -0.2990702E-04
   maximum displ.:     0.0067107 α      in ANC's #9, #18, #11, ...

........................................................................
.............................. CYCLE    4 ..............................
........................................................................

 iter      E             dE          RMSdq      gap      omega  full diag
   1    -18.1659990 -0.181660E+02  0.182E-02    5.12       0.0  T
   2    -18.1659991 -0.642499E-07  0.105E-02    5.12       2.4  T
   3    -18.1659991  0.149002E-08  0.108E-03    5.12      23.1  T
   4    -18.1659991 -0.590497E-08  0.377E-04    5.12      66.3  T
   5    -18.1659991 -0.142366E-08  0.144E-04    5.12     174.0  T
     SCC iter.                  ...        0 min,  0.002 sec
     gradient                   ...        0 min,  0.003 sec
 * total energy  :   -17.8806993 Eh     change       -0.2067591E-04 Eh
   gradient norm :     0.0013333 Eh/α   predicted    -0.1495769E-04 ( -27.66%)
   displ. norm   :     0.0798023 α      lambda       -0.4195139E-04
   maximum displ.:     0.0631677 α      in ANC's #1, #2, #9, ...

........................................................................
.............................. CYCLE    5 ..............................
........................................................................

 iter      E             dE          RMSdq      gap      omega  full diag
   1    -18.1634867 -0.181635E+02  0.906E-02    5.13       0.0  T
   2    -18.1634876 -0.865250E-06  0.534E-02    5.13       1.0  T
   3    -18.1634870  0.594112E-06  0.760E-03    5.13       3.3  T
   4    -18.1634876 -0.624507E-06  0.289E-03    5.13       8.7  T
   5    -18.1634877 -0.103749E-06  0.613E-04    5.13      40.8  T
   6    -18.1634877 -0.974332E-10  0.190E-04    5.13     131.3  T
     SCC iter.                  ...        0 min,  0.002 sec
     gradient                   ...        0 min,  0.004 sec
 * total energy  :   -17.8805461 Eh     change        0.1532434E-03 Eh
   gradient norm :     0.0090537 Eh/α   predicted    -0.2103585E-04 (-113.73%)
   displ. norm   :     0.0449431 α      lambda       -0.2231857E-03
   maximum displ.:     0.0431763 α      in ANC's #1, #4, #18, ...

........................................................................
.............................. CYCLE    6 ..............................
........................................................................

 iter      E             dE          RMSdq      gap      omega  full diag
   1    -18.1643834 -0.181644E+02  0.552E-02    5.13       0.0  T
   2    -18.1643836 -0.209690E-06  0.327E-02    5.13       1.0  T
   3    -18.1643833  0.283711E-06  0.496E-03    5.13       5.0  T
   4    -18.1643836 -0.310524E-06  0.135E-03    5.13      18.5  T
   5    -18.1643836 -0.214290E-07  0.365E-04    5.13      68.5  T
   6    -18.1643836 -0.184919E-10  0.186E-04    5.13     134.7  T
     SCC iter.                  ...        0 min,  0.002 sec
     gradient                   ...        0 min,  0.003 sec
 * total energy  :   -17.8806907 Eh     change       -0.1446236E-03 Eh
   gradient norm :     0.0032334 Eh/α   predicted    -0.1118181E-03 ( -22.68%)
   displ. norm   :     0.0340960 α      lambda       -0.5074281E-04
   maximum displ.:     0.0238795 α      in ANC's #2, #1, #15, ...

........................................................................
.............................. CYCLE    7 ..............................
........................................................................

 iter      E             dE          RMSdq      gap      omega  full diag
   1    -18.1654647 -0.181655E+02  0.408E-02    5.12       0.0  T
   2    -18.1654648 -0.137458E-06  0.240E-02    5.12       1.0  T
   3    -18.1654648  0.617089E-07  0.257E-03    5.12       9.7  T
   4    -18.1654648 -0.699681E-07  0.998E-04    5.12      25.0  T
   5    -18.1654648 -0.115487E-07  0.298E-04    5.12      84.0  T
     SCC iter.                  ...        0 min,  0.002 sec
     gradient                   ...        0 min,  0.003 sec
 * total energy  :   -17.8807001 Eh     change       -0.9336846E-05 Eh
   gradient norm :     0.0024048 Eh/α   predicted    -0.2540116E-04 ( 172.05%)
   displ. norm   :     0.0259521 α      lambda       -0.3154746E-04
   maximum displ.:     0.0248270 α      in ANC's #2, #1, #5, ...

........................................................................
.............................. CYCLE    8 ..............................
........................................................................

 iter      E             dE          RMSdq      gap      omega  full diag
   1    -18.1658311 -0.181658E+02  0.318E-02    5.12       0.0  T
   2    -18.1658311 -0.419607E-07  0.188E-02    5.12       1.3  T
   3    -18.1658310  0.703669E-07  0.236E-03    5.12      10.6  T
   4    -18.1658311 -0.857415E-07  0.337E-04    5.13      74.1  T
   5    -18.1658311 -0.294285E-09  0.198E-04    5.13     126.2  T
     SCC iter.                  ...        0 min,  0.002 sec
     gradient                   ...        0 min,  0.003 sec
 * total energy  :   -17.8807062 Eh     change       -0.6108936E-05 Eh
   gradient norm :     0.0021725 Eh/α   predicted    -0.1578379E-04 ( 158.37%)
   displ. norm   :     0.0112318 α      lambda       -0.1179232E-04
   maximum displ.:     0.0065403 α      in ANC's #1, #9, #2, ...

........................................................................
.............................. CYCLE    9 ..............................
........................................................................

 iter      E             dE          RMSdq      gap      omega  full diag
   1    -18.1652694 -0.181653E+02  0.151E-02    5.12       0.0  T
   2    -18.1652694 -0.407696E-07  0.883E-03    5.12       2.8  T
   3    -18.1652694  0.283288E-07  0.166E-03    5.12      15.1  T
   4    -18.1652694 -0.316840E-07  0.485E-04    5.12      51.5  T
   5    -18.1652694 -0.285957E-08  0.139E-04    5.12     180.1  T
     SCC iter.                  ...        0 min,  0.002 sec
     gradient                   ...        0 min,  0.003 sec
 * total energy  :   -17.8807118 Eh     change       -0.5613355E-05 Eh
   gradient norm :     0.0006072 Eh/α   predicted    -0.5899175E-05 (   5.09%)
   displ. norm   :     0.0044219 α      lambda       -0.8810622E-06
   maximum displ.:     0.0020682 α      in ANC's #15, #5, #8, ...

........................................................................
.............................. CYCLE   10 ..............................
........................................................................

 iter      E             dE          RMSdq      gap      omega  full diag
   1    -18.1654389 -0.181654E+02  0.425E-03    5.12       0.0  T
   2    -18.1654389 -0.273096E-08  0.248E-03    5.12      10.1  T
   3    -18.1654389  0.146347E-08  0.391E-04    5.12      64.0  T
   4    -18.1654389 -0.147891E-08  0.157E-04    5.12     158.8  T
     SCC iter.                  ...        0 min,  0.001 sec
     gradient                   ...        0 min,  0.003 sec
 * total energy  :   -17.8807127 Eh     change       -0.9132966E-06 Eh
   gradient norm :     0.0002282 Eh/α   predicted    -0.4414822E-06 ( -51.66%)
   displ. norm   :     0.0149895 α      lambda       -0.1600925E-05
   maximum displ.:     0.0098590 α      in ANC's #2, #9, #8, ...

   *** GEOMETRY OPTIMIZATION CONVERGED AFTER 10 ITERATIONS ***

------------------------------------------------------------------------
 total energy gain   :        -0.0230299 Eh      -14.4515 kcal/mol
 total RMSD          :         0.0290102 a0        0.0154 Å
 total power (kW/mol):        -6.0464898 (step) -845.1287 (real)
------------------------------------------------------------------------

 ANCopt (total)                0 d,  0 h,  0 min,  0.072 sec
 optimizer setup                ...        0 min,  0.000 sec (  0.125%)
 model hessian                  ...        0 min,  0.006 sec (  8.722%)
 ANC generation                 ...        0 min,  0.000 sec (  0.516%)
 coordinate transformation      ...        0 min,  0.000 sec (  0.071%)
 single point calculation       ...        0 min,  0.062 sec ( 86.421%)
 optimization log               ...        0 min,  0.001 sec (  1.327%)
 hessian update                 ...        0 min,  0.000 sec (  0.107%)
 rational function              ...        0 min,  0.001 sec (  1.800%)

================
 final structure:
================
16
 xtb: 6.6.1 (8d0f1dd)
C           -0.89319616427171       -1.29094061888724       -0.19049572466807
C            0.41162735384016       -1.50434366869665       -0.26043565695267
C            1.48570139728217       -0.49359010000444       -0.11399783967552
C            0.80781003917097        1.16633842324722       -0.24661360082732
C           -0.39492767171116        1.23054547071251        0.63469154469679
C           -1.56935734173193        0.00866751997004        0.03447230573474
H           -1.56902683796785       -2.12957312045109       -0.31865437209133
H            0.76925422802544       -2.51433269480074       -0.42932332451833
H            2.23626480936881       -0.57680983917843       -0.89442159640369
H            1.95799146533017       -0.54064024849261        0.86437984405731
H            0.56993582560551        1.30827737113905       -1.29483441556654
H            1.60568423921525        1.83387274794167        0.06542636034806
H           -0.91369731290416        2.18347469211443        0.58543055710600
H           -0.17977441243074        0.95782771174526        1.66173359734965
H           -2.34757801008451       -0.05911067555449        0.78883577417102
H           -1.97662160673643        0.42022702919551       -0.88597345276010

 Bond Distances (Angstroems)
 ---------------------------
C1-C2=1.3240         C1-C6=1.4822         C1-H7=1.0847         C2-C1=1.3240         C2-C3=1.4821         C2-H8=1.0847         
C3-C2=1.4821         C3-C4=1.7979         C3-H9=1.0860         C3-H10=1.0874        C4-C3=1.7979         C4-C5=1.4924         
C4-H11=1.0842        C4-H12=1.0861        C5-C4=1.4924         C5-C6=1.7979         C5-H13=1.0861        C5-H14=1.0842        
C6-C1=1.4822         C6-C5=1.7979         C6-H15=1.0859        C6-H16=1.0874        H7-C1=1.0847         H8-C2=1.0847         
H9-C3=1.0860         H10-C3=1.0874        H11-C4=1.0842        H12-C4=1.0861        H13-C5=1.0861        H14-C5=1.0842        
H15-C6=1.0859        H16-C6=1.0874        
 C  H  Rav=1.0857 sigma=0.0011  Rmin=1.0842  Rmax=1.0874    10
 C  C  Rav=1.5628 sigma=0.1759  Rmin=1.3240  Rmax=1.7979     6

 selected bond angles (degree)
 --------------------
C6-C1-C2=126.79                H7-C1-C2=118.89                H7-C1-C6=114.31                C3-C2-C1=126.80                
H8-C2-C1=118.90                H8-C2-C3=114.30                C4-C3-C2=110.43                H9-C3-C2=112.19                
H9-C3-C4=106.16                H10-C3-C2=111.97               H10-C3-C4=105.67               H10-C3-H9=110.06               
C5-C4-C3=107.46                H11-C4-C3=105.96               H11-C4-C5=112.86               H12-C4-C3=105.62               
H12-C4-C5=113.32               H12-C4-H11=111.01              C6-C5-C4=107.46                H13-C5-C4=113.32               
H13-C5-C6=105.61               H14-C5-C4=112.87               H14-C5-C6=105.96               H14-C5-H13=111.00              
C5-C6-C1=110.40                H15-C6-C1=112.19               H15-C6-C5=106.18               H16-C6-C1=111.98               
H16-C6-C5=105.66               H16-C6-H15=110.07              

 selected dihedral angles (degree)
 ---------------------------------
C3-C2-C1-C6=  0.75            C3-C2-C1-H7=179.93            H8-C2-C1-C6=179.92            H8-C2-C1-H7=359.10            
C4-C3-C2-C1=345.25            C4-C3-C2-H8=166.05            H9-C3-C2-C1=227.04            H9-C3-C2-H8= 47.84            
H10-C3-C2-C1=102.71           H10-C3-C2-H8=283.50           C5-C4-C3-C2= 47.75            C5-C4-C3-H9=169.58            
C5-C4-C3-H10=286.47           H11-C4-C3-C2=286.85           H11-C4-C3-H9= 48.69           H11-C4-C3-H10=165.58          
H12-C4-C3-C2=169.01           H12-C4-C3-H9=290.84           H12-C4-C3-H10= 47.73          C6-C5-C4-C3=299.39            
C6-C5-C4-H11= 55.83           C6-C5-C4-H12=183.09           H13-C5-C4-C3=183.10           H13-C5-C4-H11=299.55          
H13-C5-C4-H12= 66.81          H14-C5-C4-C3= 55.84           H14-C5-C4-H11=172.29          H14-C5-C4-H12=299.55          
C5-C6-C1-C2=345.11            C5-C6-C1-H7=165.89            H15-C6-C1-C2=226.89           H15-C6-C1-H7= 47.68           
H16-C6-C1-C2=102.54           H16-C6-C1-H7=283.33           C1-C6-C5-C4= 47.89            C1-C6-C5-H13=169.14           
C1-C6-C5-H14=286.98           H15-C6-C5-C4=169.72           H15-C6-C5-H13=290.97          H15-C6-C5-H14= 48.81          
H16-C6-C5-C4=286.62           H16-C6-C5-H13= 47.87          H16-C6-C5-H14=165.71          
           -------------------------------------------------
          |                Final Singlepoint                |
           -------------------------------------------------

          ...................................................
          :                      SETUP                      :
          :.................................................:
          :  # basis functions                  34          :
          :  # atomic orbitals                  34          :
          :  # shells                           22          :
          :  # electrons                        34          :
          :  max. iterations                   250          :
          :  Hamiltonian                  GFN2-xTB          :
          :  restarted?                      false          :
          :  GBSA solvation                  false          :
          :  PC potential                    false          :
          :  electronic temp.          300.0000000     K    :
          :  accuracy                    1.0000000          :
          :  -> integral cutoff          0.2500000E+02      :
          :  -> integral neglect         0.1000000E-07      :
          :  -> SCF convergence          0.1000000E-05 Eh   :
          :  -> wf. convergence          0.1000000E-03 e    :
          :  Broyden damping             0.4000000          :
          ...................................................

 iter      E             dE          RMSdq      gap      omega  full diag
   1    -18.1654389 -0.181654E+02  0.281E-05    5.12       0.0  T
   2    -18.1654389 -0.952127E-12  0.164E-05    5.12    1520.3  T
   3    -18.1654389  0.426326E-13  0.110E-05    5.12    2265.8  T

   *** convergence criteria satisfied after 3 iterations ***

         #    Occupation            Energy/Eh            Energy/eV
      -------------------------------------------------------------
         1        2.0000           -0.6173016             -16.7976
       ...           ...                  ...                  ...
        11        2.0000           -0.4685791             -12.7507
        12        2.0000           -0.4635994             -12.6152
        13        2.0000           -0.4446798             -12.1004
        14        2.0000           -0.4375418             -11.9061
        15        2.0000           -0.4084340             -11.1141
        16        2.0000           -0.3964317             -10.7875
        17        2.0000           -0.3791355             -10.3168 (HOMO)
        18                         -0.1908029              -5.1920 (LUMO)
        19                         -0.1068601              -2.9078
        20                         -0.0842152              -2.2916
        21                          0.1171648               3.1882
        22                          0.1323783               3.6022
       ...                                ...                  ...
        34                          0.6432373              17.5034
      -------------------------------------------------------------
                  HL-Gap            0.1883326 Eh            5.1248 eV
             Fermi-level           -0.2849692 Eh           -7.7544 eV

 SCC (total)                   0 d,  0 h,  0 min,  0.005 sec
 SCC setup                      ...        0 min,  0.000 sec (  2.462%)
 Dispersion                     ...        0 min,  0.000 sec (  1.034%)
 classical contributions        ...        0 min,  0.000 sec (  0.444%)
 integral evaluation            ...        0 min,  0.001 sec ( 20.418%)
 iterations                     ...        0 min,  0.001 sec ( 22.058%)
 molecular gradient             ...        0 min,  0.003 sec ( 50.524%)
 printout                       ...        0 min,  0.000 sec (  2.792%)

         :::::::::::::::::::::::::::::::::::::::::::::::::::::
         ::                     SUMMARY                     ::
         :::::::::::::::::::::::::::::::::::::::::::::::::::::
         :: total energy             -17.880712702035 Eh    ::
         :: gradient norm              0.000228012643 Eh/a0 ::
         :: HOMO-LUMO gap              5.124790640074 eV    ::
         ::.................................................::
         :: SCC energy               -18.165438886421 Eh    ::
         :: -> isotropic ES            0.002525780272 Eh    ::
         :: -> anisotropic ES          0.006264171855 Eh    ::
         :: -> anisotropic XC          0.012653679784 Eh    ::
         :: -> dispersion             -0.009847859488 Eh    ::
         :: repulsion energy           0.283191862351 Eh    ::
         :: add. restraining           0.001509995677 Eh    ::
         :: total charge               0.000000000000 e     ::
         :::::::::::::::::::::::::::::::::::::::::::::::::::::

           -------------------------------------------------
          |                Property Printout                |
           -------------------------------------------------

    * Orbital Energies and Occupations

         #    Occupation            Energy/Eh            Energy/eV
      -------------------------------------------------------------
         1        2.0000           -0.6173016             -16.7976
       ...           ...                  ...                  ...
         5        2.0000           -0.5543572             -15.0848
         6        2.0000           -0.5216085             -14.1937
         7        2.0000           -0.5115076             -13.9188
         8        2.0000           -0.4923678             -13.3980
         9        2.0000           -0.4790500             -13.0356
        10        2.0000           -0.4694586             -12.7746
        11        2.0000           -0.4685791             -12.7507
        12        2.0000           -0.4635994             -12.6152
        13        2.0000           -0.4446798             -12.1004
        14        2.0000           -0.4375418             -11.9061
        15        2.0000           -0.4084340             -11.1141
        16        2.0000           -0.3964317             -10.7875
        17        2.0000           -0.3791355             -10.3168 (HOMO)
        18                         -0.1908029              -5.1920 (LUMO)
        19                         -0.1068601              -2.9078
        20                         -0.0842152              -2.2916
        21                          0.1171648               3.1882
        22                          0.1323783               3.6022
        23                          0.1567798               4.2662
        24                          0.1626288               4.4254
        25                          0.1840269               5.0076
        26                          0.1909402               5.1957
        27                          0.2230030               6.0682
        28                          0.2321801               6.3179
       ...                                ...                  ...
        34                          0.6432373              17.5034
      -------------------------------------------------------------
                  HL-Gap            0.1883326 Eh            5.1248 eV
             Fermi-level           -0.2849692 Eh           -7.7544 eV

     #   Z          covCN         q      C6AA      α(0)
     1   6 C        2.887    -0.037    28.926     8.818
     2   6 C        2.887    -0.037    28.926     8.818
     3   6 C        3.673    -0.065    21.997     6.722
     4   6 C        3.670    -0.060    21.924     6.712
     5   6 C        3.670    -0.060    21.924     6.712
     6   6 C        3.673    -0.065    21.997     6.722
     7   1 H        0.925     0.023     2.685     2.562
     8   1 H        0.925     0.023     2.685     2.562
     9   1 H        0.925     0.035     2.512     2.478
    10   1 H        0.925     0.040     2.451     2.448
    11   1 H        0.925     0.035     2.511     2.478
    12   1 H        0.925     0.029     2.602     2.522
    13   1 H        0.925     0.029     2.602     2.523
    14   1 H        0.925     0.035     2.511     2.478
    15   1 H        0.925     0.035     2.512     2.478
    16   1 H        0.925     0.040     2.450     2.448

 Mol. C6AA /au·bohr⁶  :       2061.896414
 Mol. C8AA /au·bohr⁸  :      45744.790119
 Mol. α(0) /au        :         69.481224


Wiberg/Mayer (AO) data.
largest (>0.10) Wiberg bond orders for each atom

 ---------------------------------------------------------------------------
     #   Z sym  total        # sym  WBO       # sym  WBO       # sym  WBO
 ---------------------------------------------------------------------------
     1   6 C    3.992 --     2 C    1.918     6 C    1.045     7 H    0.960
     2   6 C    3.992 --     1 C    1.918     3 C    1.045     8 H    0.960
     3   6 C    3.994 --     2 C    1.045     9 H    0.973    10 H    0.966
                             4 C    0.956
     4   6 C    3.995 --     5 C    1.047    11 H    0.984    12 H    0.977
                             3 C    0.956
     5   6 C    3.995 --     4 C    1.047    14 H    0.984    13 H    0.977
                             6 C    0.956
     6   6 C    3.994 --     1 C    1.045    15 H    0.973    16 H    0.966
                             5 C    0.956
     7   1 H    0.999 --     1 C    0.960
     8   1 H    0.999 --     2 C    0.960
     9   1 H    0.999 --     3 C    0.973
    10   1 H    0.998 --     3 C    0.966
    11   1 H    0.999 --     4 C    0.984
    12   1 H    0.999 --     4 C    0.977
    13   1 H    0.999 --     5 C    0.977
    14   1 H    0.999 --     5 C    0.984
    15   1 H    0.999 --     6 C    0.973
    16   1 H    0.998 --     6 C    0.966
 ---------------------------------------------------------------------------

Topologies differ in total number of bonds
Writing topology from bond orders to xtbtopo.mol

molecular dipole:
                 x           y           z       tot (Debye)
 q only:        0.017       0.099       0.016
   full:        0.018       0.105       0.017       0.274
molecular quadrupole (traceless):
                xx          xy          yy          xz          yz          zz
 q only:        0.751      -0.185      -0.316      -0.025       0.018      -0.435
  q+dip:        1.494      -0.355      -0.231       0.308       0.104      -1.263
   full:        1.015      -0.263      -0.281       0.202       0.031      -0.735

           -------------------------------------------------
          |                Geometry Summary                 |
           -------------------------------------------------

      molecular mass/u    :       82.1438229
   center of mass at/Å    :       -0.0204045      -0.1183185      -0.0190683
  moments of inertia/u·Å² :        0.1145486E+03   0.1203506E+03   0.2127224E+03
rotational constants/cm⁻¹ :        0.1471658E+00   0.1400710E+00   0.7924710E-01

 * 12 selected distances

     #   Z          #   Z                                           value/Å
     1   6 C        2   6 C                                       1.3240080
     4   6 C        5   6 C                                       1.4924476 (max)
     1   6 C        7   1 H                                       1.0846550
     2   6 C        8   1 H                                       1.0846650
     3   6 C        9   1 H                                       1.0859707
     3   6 C       10   1 H                                       1.0874257
     4   6 C       11   1 H                                       1.0842038
     4   6 C       12   1 H                                       1.0860822
     5   6 C       13   1 H                                       1.0861045
     5   6 C       14   1 H                                       1.0841962 (min)
     6   6 C       15   1 H                                       1.0859492
     6   6 C       16   1 H                                       1.0874125

 * 2 distinct bonds (by element types)

   Z      Z             #   av. dist./Å        max./Å        min./Å
   1 H    6 C          10     1.0856665     1.0874257     1.0841962
   6 C    6 C           2     1.4082278     1.4924476     1.3240080


optimized geometry written to: xtbopt.xyz


           -------------------------------------------------
          | TOTAL ENERGY              -17.880712702035 Eh   |
          | GRADIENT NORM               0.000228012643 Eh/α |
          | HOMO-LUMO GAP               5.124790640074 eV   |
           -------------------------------------------------

------------------------------------------------------------------------
 * finished run on 2025/05/23 at 11:18:28.878     
------------------------------------------------------------------------
 total:
 * wall-time:     0 d,  0 h,  0 min,  0.094 sec
 *  cpu-time:     0 d,  0 h,  0 min,  0.094 sec
 * ratio c/w:     1.000 speedup
 SCF:
 * wall-time:     0 d,  0 h,  0 min,  0.008 sec
 *  cpu-time:     0 d,  0 h,  0 min,  0.008 sec
 * ratio c/w:     1.000 speedup
 ANC optimizer:
 * wall-time:     0 d,  0 h,  0 min,  0.078 sec
 *  cpu-time:     0 d,  0 h,  0 min,  0.078 sec
 * ratio c/w:     1.000 speedup

