      -----------------------------------------------------------      
     |                   =====================                   |     
     |                           x T B                           |     
     |                   =====================                   |     
     |                         S. Grimme                         |     
     |          Mulliken Center for Theoretical Chemistry        |     
     |                    University of Bonn                     |     
      -----------------------------------------------------------      

   * xtb version 6.6.1 (8d0f1dd) compiled by 'conda@1efc2f54142f' on 2023-08-01

   xtb is free software: you can redistribute it and/or modify it under
   the terms of the GNU Lesser General Public License as published by
   the Free Software Foundation, either version 3 of the License, or
   (at your option) any later version.
   
   xtb is distributed in the hope that it will be useful,
   but WITHOUT ANY WARRANTY; without even the implied warranty of
   MERCHANTABILITY or FITNESS FOR A PARTICULAR PURPOSE.  See the
   GNU Lesser General Public License for more details.
   
   Cite this work as:
   * C. Bannwarth, E. Caldeweyher, S. Ehlert, A. Hansen, P. Pracht,
     J. Seibert, S. Spicher, S. Grimme, WIREs Comput. Mol. Sci., 2020, 11,
     e01493. DOI: 10.1002/wcms.1493
   
   for GFN2-xTB:
   * C. Bannwarth, S. Ehlert and S. Grimme., J. Chem. Theory Comput., 2019,
     15, 1652-1671. DOI: 10.1021/acs.jctc.8b01176
   for GFN1-xTB:
   * S. Grimme, C. Bannwarth, P. Shushkov, J. Chem. Theory Comput., 2017,
     13, 1989-2009. DOI: 10.1021/acs.jctc.7b00118
   for GFN0-xTB:
   * P. Pracht, E. Caldeweyher, S. Ehlert, S. Grimme, ChemRxiv, 2019, preprint.
     DOI: 10.26434/chemrxiv.8326202.v1
   for GFN-FF:
   * S. Spicher and S. Grimme, Angew. Chem. Int. Ed., 2020, 59, 15665-15673.
     DOI: 10.1002/anie.202004239
   
   for ALPB and GBSA implicit solvation:
   * S. Ehlert, M. Stahn, S. Spicher, S. Grimme, J. Chem. Theory Comput.,
     2021, 17, 4250-4261. DOI: 10.1021/acs.jctc.1c00471
   
   for DFT-D4:
   * E. Caldeweyher, C. Bannwarth and S. Grimme, J. Chem. Phys., 2017,
     147, 034112. DOI: 10.1063/1.4993215
   * E. Caldeweyher, S. Ehlert, A. Hansen, H. Neugebauer, S. Spicher,
     C. Bannwarth and S. Grimme, J. Chem. Phys., 2019, 150, 154122.
     DOI: 10.1063/1.5090222
   * E. Caldeweyher, J.-M. Mewes, S. Ehlert and S. Grimme, Phys. Chem. Chem. Phys.
     2020, 22, 8499-8512. DOI: 10.1039/D0CP00502A
   
   for sTDA-xTB:
   * S. Grimme and C. Bannwarth, J. Chem. Phys., 2016, 145, 054103.
     DOI: 10.1063/1.4959605
   
   in the mass-spec context:
   * V. Asgeirsson, C. Bauer and S. Grimme, Chem. Sci., 2017, 8, 4879.
     DOI: 10.1039/c7sc00601b
   * J. Koopman and S. Grimme, ACS Omega 2019, 4, 12, 15120-15133.
     DOI: 10.1021/acsomega.9b02011
   
   for metadynamics refer to:
   * S. Grimme, J. Chem. Theory Comput., 2019, 155, 2847-2862
     DOI: 10.1021/acs.jctc.9b00143
   
   for SPH calculations refer to:
   * S. Spicher and S. Grimme, J. Chem. Theory Comput., 2021, 17, 1701-1714
     DOI: 10.1021/acs.jctc.0c01306
   
   with help from (in alphabetical order)
   P. Atkinson, C. Bannwarth, F. Bohle, G. Brandenburg, E. Caldeweyher
   M. Checinski, S. Dohm, S. Ehlert, S. Ehrlich, I. Gerasimov, C. Hölzer
   A. Katbashev, J. Koopman, C. Lavigne, S. Lehtola, F. März, M. Müller,
   F. Musil, H. Neugebauer, J. Pisarek, C. Plett, P. Pracht, F. Pultar,
   J. Seibert, P. Shushkov, S. Spicher, M. Stahn, M. Steiner, T. Strunk,
   J. Stückrath, T. Rose, and J. Unsleber
   
 * started run on 2025/05/23 at 11:18:30.982     

           -------------------------------------------------
          |                Calculation Setup                |
           -------------------------------------------------

          program call               : /home/avcopan/code/other/saddle-search-practice/.pixi/envs/default/bin/xtb path_opt8_xtb.xyz --chrg 0 --uhf 0 --opt --input xcontrol_path_opt8_xtb
          coordinate file            : path_opt8_xtb.xyz
          omp threads                :                     1

   ID    Z sym.   atoms
    1    6 C      1-6
    2    1 H      7-16
constraining bond 3 4 to    2.0425000 Å, actual value:    1.9924938 Å
constraining bond 5 6 to    2.0426000 Å, actual value:    1.9925639 Å

molecular fragmentation (1/2 indicates fragments):
1112211111222211
# atoms in fragment 1/2:    10     6
 fragment masses (1/2) :       54.09       28.05
CMA distance (Bohr)    :   4.374
constraining FC (au)   :  2.0000

           -------------------------------------------------
          |                 G F N 2 - x T B                 |
           -------------------------------------------------

        Reference                      10.1021/acs.jctc.8b01176
      * Hamiltonian:
        H0-scaling (s, p, d)           1.850000    2.230000    2.230000
        zeta-weighting                 0.500000
      * Dispersion:
        s8                             2.700000
        a1                             0.520000
        a2                             5.000000
        s9                             5.000000
      * Repulsion:
        kExp                           1.500000    1.000000
        rExp                           1.000000
      * Coulomb:
        alpha                          2.000000
        third order                    shell-resolved
        anisotropic                    true
        a3                             3.000000
        a5                             4.000000
        cn-shift                       1.200000
        cn-exp                         4.000000
        max-rad                        5.000000


          ...................................................
          :                      SETUP                      :
          :.................................................:
          :  # basis functions                  34          :
          :  # atomic orbitals                  34          :
          :  # shells                           22          :
          :  # electrons                        34          :
          :  max. iterations                   250          :
          :  Hamiltonian                  GFN2-xTB          :
          :  restarted?                      false          :
          :  GBSA solvation                  false          :
          :  PC potential                    false          :
          :  electronic temp.          300.0000000     K    :
          :  accuracy                    1.0000000          :
          :  -> integral cutoff          0.2500000E+02      :
          :  -> integral neglect         0.1000000E-07      :
          :  -> SCF convergence          0.1000000E-05 Eh   :
          :  -> wf. convergence          0.1000000E-03 e    :
          :  Broyden damping             0.4000000          :
          ...................................................

 iter      E             dE          RMSdq      gap      omega  full diag
   1    -18.0795750 -0.180796E+02  0.330E+00    4.52       0.0  T
   2    -18.1063414 -0.267664E-01  0.186E+00    4.49       1.0  T
   3    -18.1043708  0.197059E-02  0.781E-01    4.48       1.0  T
   4    -18.1040473  0.323518E-03  0.501E-01    4.49       1.0  T
   5    -18.1078310 -0.378366E-02  0.599E-02    4.49       1.0  T
   6    -18.1078323 -0.128223E-05  0.161E-02    4.48       1.6  T
   7    -18.1078324 -0.172737E-06  0.257E-03    4.48       9.7  T
   8    -18.1078325 -0.925295E-08  0.929E-04    4.49      26.9  T
   9    -18.1078325 -0.323521E-08  0.480E-04    4.48      52.1  T

   *** convergence criteria satisfied after 9 iterations ***

         #    Occupation            Energy/Eh            Energy/eV
      -------------------------------------------------------------
         1        2.0000           -0.6141370             -16.7115
       ...           ...                  ...                  ...
        11        2.0000           -0.4678798             -12.7317
        12        2.0000           -0.4611115             -12.5475
        13        2.0000           -0.4417807             -12.0215
        14        2.0000           -0.4389329             -11.9440
        15        2.0000           -0.3972368             -10.8094
        16        2.0000           -0.3859343             -10.5018
        17        2.0000           -0.3702083             -10.0739 (HOMO)
        18                         -0.2053877              -5.5889 (LUMO)
        19                         -0.1757202              -4.7816
        20                         -0.1584144              -4.3107
        21                          0.1154568               3.1417
        22                          0.1336302               3.6363
       ...                                ...                  ...
        34                          0.6475780              17.6215
      -------------------------------------------------------------
                  HL-Gap            0.1648207 Eh            4.4850 eV
             Fermi-level           -0.2877980 Eh           -7.8314 eV

 SCC (total)                   0 d,  0 h,  0 min,  0.009 sec
 SCC setup                      ...        0 min,  0.000 sec (  3.717%)
 Dispersion                     ...        0 min,  0.000 sec (  1.289%)
 classical contributions        ...        0 min,  0.000 sec (  0.563%)
 integral evaluation            ...        0 min,  0.002 sec ( 19.176%)
 iterations                     ...        0 min,  0.004 sec ( 43.156%)
 molecular gradient             ...        0 min,  0.003 sec ( 29.830%)
 printout                       ...        0 min,  0.000 sec (  1.737%)

         :::::::::::::::::::::::::::::::::::::::::::::::::::::
         ::                     SUMMARY                     ::
         :::::::::::::::::::::::::::::::::::::::::::::::::::::
         :: total energy             -17.785255433596 Eh    ::
         :: gradient norm              0.586574972218 Eh/a0 ::
         :: HOMO-LUMO gap              4.484999224943 eV    ::
         ::.................................................::
         :: SCC energy               -18.107832454426 Eh    ::
         :: -> isotropic ES            0.002577562704 Eh    ::
         :: -> anisotropic ES          0.007369805630 Eh    ::
         :: -> anisotropic XC          0.013289074784 Eh    ::
         :: -> dispersion             -0.010494349969 Eh    ::
         :: repulsion energy           0.286806699530 Eh    ::
         :: add. restraining           0.035740814259 Eh    ::
         :: total charge               0.000000000000 e     ::
         :::::::::::::::::::::::::::::::::::::::::::::::::::::

      ----------------------------------------------------------- 
     |                   =====================                   |
     |                        A N C O P T                        |
     |                   =====================                   |
     |               Approximate Normal Coordinate               |
     |                Rational Function Optimizer                |
      ----------------------------------------------------------- 

          ...................................................
          :                      SETUP                      :
          :.................................................:
          :   optimization level            normal          :
          :   max. optcycles                   200          :
          :   ANC micro-cycles                  20          :
          :   degrees of freedom                42          :
          :.................................................:
          :   RF solver                   davidson          :
          :   write xtbopt.log                true          :
          :   linear?                        false          :
          :   energy convergence         0.5000000E-05 Eh   :
          :   grad. convergence          0.1000000E-02 Eh/α :
          :   maxmium RF displ.          1.0000000          :
          :   Hlow (freq-cutoff)         0.1000000E-01      :
          :   Hmax (freq-cutoff)         5.0000000          :
          :   S6 in model hess.         20.0000000          :
          ...................................................

generating ANC from model Hessian ...
Using Lindh-Hessian (1995)
 Shifting diagonal of input Hessian by    6.5235869280263717E-002
 Lowest  eigenvalues of input Hessian
    0.010000    0.023285    0.032962    0.060784    0.000000    0.000000
    0.000000    0.000000    0.000000    0.000000    0.071961    0.075898
    0.078218    0.086291    0.087048    0.092667    0.093393    0.094332
 Highest eigenvalues
    1.241002    1.340248    1.552864    2.001780    8.438788    8.450735


........................................................................
.............................. CYCLE    1 ..............................
........................................................................

 iter      E             dE          RMSdq      gap      omega  full diag
   1    -18.1078325 -0.181078E+02  0.130E-04    4.48       0.0  T
   2    -18.1078325 -0.901679E-11  0.891E-05    4.48     280.5  T
   3    -18.1078325 -0.548646E-10  0.548E-05    4.48     456.4  T
     SCC iter.                  ...        0 min,  0.003 sec
     gradient                   ...        0 min,  0.005 sec
 * total energy  :   -17.7852554 Eh     change       -0.2511232E-08 Eh
   gradient norm :     0.5865751 Eh/α   predicted     0.0000000E+00 (-100.00%)
   displ. norm   :     0.1238662 α      lambda       -0.6844074E-01
   maximum displ.:     0.1156779 α      in ANC's #41, #27, #11, ...

........................................................................
.............................. CYCLE    2 ..............................
........................................................................

 iter      E             dE          RMSdq      gap      omega  full diag
   1    -18.0946320 -0.180946E+02  0.135E-01    3.97       0.0  T
   2    -18.0946507 -0.187514E-04  0.780E-02    3.98       1.0  T
   3    -18.0946469  0.380255E-05  0.228E-02    3.98       1.1  T
   4    -18.0946472 -0.217075E-06  0.163E-02    3.98       1.5  T
   5    -18.0946515 -0.439338E-05  0.112E-03    3.98      22.4  T
   6    -18.0946515 -0.116063E-08  0.547E-04    3.98      45.7  T
   7    -18.0946515 -0.152085E-09  0.596E-05    3.98     419.2  T
     SCC iter.                  ...        0 min,  0.003 sec
     gradient                   ...        0 min,  0.003 sec
 * total energy  :   -17.7989798 Eh     change       -0.1372439E-01 Eh
   gradient norm :     0.3530210 Eh/α   predicted    -0.3474543E-01 ( 153.17%)
   displ. norm   :     0.0454563 α      lambda       -0.1538405E-01
   maximum displ.:     0.0434379 α      in ANC's #41, #9, #17, ...

........................................................................
.............................. CYCLE    3 ..............................
........................................................................

 iter      E             dE          RMSdq      gap      omega  full diag
   1    -18.0976576 -0.180977E+02  0.694E-02    4.18       0.0  T
   2    -18.0976618 -0.424412E-05  0.395E-02    4.18       1.0  T
   3    -18.0976601  0.168715E-05  0.133E-02    4.18       1.9  T
   4    -18.0976611 -0.101323E-05  0.779E-03    4.18       3.2  T
   5    -18.0976621 -0.962250E-06  0.407E-04    4.18      61.5  T
   6    -18.0976621 -0.163311E-09  0.217E-04    4.18     115.2  T
     SCC iter.                  ...        0 min,  0.003 sec
     gradient                   ...        0 min,  0.003 sec
 * total energy  :   -17.8067226 Eh     change       -0.7742775E-02 Eh
   gradient norm :     0.0028434 Eh/α   predicted    -0.7707920E-02 (  -0.45%)
   displ. norm   :     0.0209207 α      lambda       -0.3528852E-04
   maximum displ.:     0.0126915 α      in ANC's #2, #9, #11, ...

........................................................................
.............................. CYCLE    4 ..............................
........................................................................

 iter      E             dE          RMSdq      gap      omega  full diag
   1    -18.0970014 -0.180970E+02  0.198E-02    4.18       0.0  T
   2    -18.0970015 -0.389871E-07  0.116E-02    4.18       2.2  T
   3    -18.0970013  0.183891E-06  0.347E-03    4.18       7.2  T
   4    -18.0970015 -0.197284E-06  0.612E-04    4.18      40.9  T
   5    -18.0970015 -0.468556E-08  0.155E-04    4.18     160.9  T
     SCC iter.                  ...        0 min,  0.002 sec
     gradient                   ...        0 min,  0.003 sec
 * total energy  :   -17.8067488 Eh     change       -0.2618113E-04 Eh
   gradient norm :     0.0016163 Eh/α   predicted    -0.1765159E-04 ( -32.58%)
   displ. norm   :     0.0496665 α      lambda       -0.4041955E-04
   maximum displ.:     0.0331283 α      in ANC's #9, #11, #8, ...

........................................................................
.............................. CYCLE    5 ..............................
........................................................................

 iter      E             dE          RMSdq      gap      omega  full diag
   1    -18.0949381 -0.180949E+02  0.536E-02    4.18       0.0  T
   2    -18.0949384 -0.350187E-06  0.311E-02    4.18       1.0  T
   3    -18.0949356  0.280137E-05  0.137E-02    4.18       1.8  T
   4    -18.0949387 -0.306002E-05  0.136E-03    4.18      18.4  T
   5    -18.0949387 -0.213240E-07  0.380E-04    4.18      65.8  T
   6    -18.0949387 -0.713420E-10  0.111E-04    4.18     224.7  T
     SCC iter.                  ...        0 min,  0.002 sec
     gradient                   ...        0 min,  0.003 sec
 * total energy  :   -17.8067481 Eh     change        0.6801094E-06 Eh
   gradient norm :     0.0037426 Eh/α   predicted    -0.2023165E-04 (*******%)
   displ. norm   :     0.0192402 α      lambda       -0.3198942E-04
   maximum displ.:     0.0172989 α      in ANC's #2, #4, #11, ...

........................................................................
.............................. CYCLE    6 ..............................
........................................................................

 iter      E             dE          RMSdq      gap      omega  full diag
   1    -18.0956398 -0.180956E+02  0.220E-02    4.18       0.0  T
   2    -18.0956398 -0.175928E-07  0.130E-02    4.18       1.9  T
   3    -18.0956394  0.483836E-06  0.553E-03    4.18       4.5  T
   4    -18.0956399 -0.523988E-06  0.305E-04    4.18      82.0  T
   5    -18.0956399 -0.515769E-09  0.151E-04    4.18     165.2  T
     SCC iter.                  ...        0 min,  0.002 sec
     gradient                   ...        0 min,  0.003 sec
 * total energy  :   -17.8067676 Eh     change       -0.1951499E-04 Eh
   gradient norm :     0.0011737 Eh/α   predicted    -0.1599914E-04 ( -18.02%)
   displ. norm   :     0.0253415 α      lambda       -0.1182336E-04
   maximum displ.:     0.0164605 α      in ANC's #1, #11, #17, ...

........................................................................
.............................. CYCLE    7 ..............................
........................................................................

 iter      E             dE          RMSdq      gap      omega  full diag
   1    -18.0967903 -0.180968E+02  0.280E-02    4.18       0.0  T
   2    -18.0967904 -0.927197E-07  0.165E-02    4.18       1.5  T
   3    -18.0967891  0.125430E-05  0.953E-03    4.18       2.6  T
   4    -18.0967905 -0.138362E-05  0.793E-04    4.18      31.5  T
   5    -18.0967905 -0.596983E-08  0.288E-04    4.18      86.8  T
   6    -18.0967905 -0.330864E-09  0.164E-04    4.18     152.8  T
     SCC iter.                  ...        0 min,  0.003 sec
     gradient                   ...        0 min,  0.003 sec
 * total energy  :   -17.8067665 Eh     change        0.1098059E-05 Eh
   gradient norm :     0.0021182 Eh/α   predicted    -0.5911082E-05 (-638.32%)
   displ. norm   :     0.0282646 α      lambda       -0.2231777E-04
   maximum displ.:     0.0250091 α      in ANC's #1, #11, #14, ...

........................................................................
.............................. CYCLE    8 ..............................
........................................................................

 iter      E             dE          RMSdq      gap      omega  full diag
   1    -18.0974351 -0.180974E+02  0.331E-02    4.17       0.0  T
   2    -18.0974352 -0.647967E-07  0.196E-02    4.17       1.3  T
   3    -18.0974334  0.180021E-05  0.111E-02    4.17       2.2  T
   4    -18.0974354 -0.196983E-05  0.767E-04    4.17      32.6  T
   5    -18.0974354 -0.503009E-08  0.342E-04    4.17      73.2  T
   6    -18.0974354 -0.619568E-09  0.175E-04    4.17     142.7  T
     SCC iter.                  ...        0 min,  0.003 sec
     gradient                   ...        0 min,  0.003 sec
 * total energy  :   -17.8067670 Eh     change       -0.5156943E-06 Eh
   gradient norm :     0.0019892 Eh/α   predicted    -0.1116807E-04 (2065.64%)
   displ. norm   :     0.0286313 α      lambda       -0.2130041E-04
   maximum displ.:     0.0142282 α      in ANC's #9, #11, #1, ...

........................................................................
.............................. CYCLE    9 ..............................
........................................................................

 iter      E             dE          RMSdq      gap      omega  full diag
   1    -18.0960820 -0.180961E+02  0.299E-02    4.17       0.0  T
   2    -18.0960821 -0.131128E-06  0.173E-02    4.17       1.4  T
   3    -18.0960812  0.937030E-06  0.790E-03    4.17       3.2  T
   4    -18.0960822 -0.102064E-05  0.955E-04    4.17      26.2  T
   5    -18.0960822 -0.997054E-08  0.280E-04    4.17      89.1  T
   6    -18.0960822 -0.148408E-09  0.172E-04    4.17     145.3  T
     SCC iter.                  ...        0 min,  0.002 sec
     gradient                   ...        0 min,  0.003 sec
 * total energy  :   -17.8067786 Eh     change       -0.1159875E-04 Eh
   gradient norm :     0.0008278 Eh/α   predicted    -0.1065348E-04 (  -8.15%)
   displ. norm   :     0.0136985 α      lambda       -0.4180494E-05
   maximum displ.:     0.0074709 α      in ANC's #2, #6, #4, ...

........................................................................
.............................. CYCLE   10 ..............................
........................................................................

 iter      E             dE          RMSdq      gap      omega  full diag
   1    -18.0963934 -0.180964E+02  0.818E-03    4.17       0.0  T
   2    -18.0963934 -0.794822E-08  0.482E-03    4.17       5.2  T
   3    -18.0963933  0.848987E-07  0.232E-03    4.17      10.8  T
   4    -18.0963934 -0.925274E-07  0.246E-04    4.17     101.7  T
   5    -18.0963934 -0.581128E-09  0.824E-05    4.17     303.5  T
     SCC iter.                  ...        0 min,  0.002 sec
     gradient                   ...        0 min,  0.004 sec
 * total energy  :   -17.8067836 Eh     change       -0.4968789E-05 Eh
   gradient norm :     0.0004645 Eh/α   predicted    -0.2090827E-05 ( -57.92%)
   displ. norm   :     0.0436255 α      lambda       -0.7466108E-05
   maximum displ.:     0.0279010 α      in ANC's #2, #6, #8, ...

   *** GEOMETRY OPTIMIZATION CONVERGED AFTER 10 ITERATIONS ***

------------------------------------------------------------------------
 total energy gain   :        -0.0215282 Eh      -13.5091 kcal/mol
 total RMSD          :         0.0359798 a0        0.0190 Å
 total power (kW/mol):        -5.6522206 (step) -726.3478 (real)
------------------------------------------------------------------------

 ANCopt (total)                0 d,  0 h,  0 min,  0.078 sec
 optimizer setup                ...        0 min,  0.000 sec (  0.139%)
 model hessian                  ...        0 min,  0.005 sec (  5.844%)
 ANC generation                 ...        0 min,  0.000 sec (  0.360%)
 coordinate transformation      ...        0 min,  0.000 sec (  0.089%)
 single point calculation       ...        0 min,  0.070 sec ( 89.528%)
 optimization log               ...        0 min,  0.001 sec (  1.183%)
 hessian update                 ...        0 min,  0.000 sec (  0.107%)
 rational function              ...        0 min,  0.001 sec (  1.569%)

================
 final structure:
================
16
 xtb: 6.6.1 (8d0f1dd)
C           -0.90325988985325       -1.34311903546384       -0.19985434239256
C            0.40362125274850       -1.55723725813743       -0.26753362868759
C            1.50695403556411       -0.59560719156750       -0.12388085349290
C            0.81573772757103        1.31179560870693       -0.22525381037386
C           -0.35425046046171        1.36955010286632        0.66036937700476
C           -1.62305250325732       -0.07841417734580        0.01216961352611
H           -1.56386802745647       -2.19719434202916       -0.32716286936828
H            0.74189105862780       -2.57624061859919       -0.43865418727875
H            2.22805719127172       -0.62937913179249       -0.93028884511833
H            1.98148617320005       -0.61287854354891        0.85006617336546
H            0.60825022126395        1.45499277736889       -1.27606167317699
H            1.68734308768351        1.85930068318619        0.11356861579042
H           -0.98007898565757        2.24763181404907        0.55292028749966
H           -0.16752484259023        1.10631602909767        1.69162225684483
H           -2.36024671558188       -0.11912775037888        0.80361510670258
H           -2.02099932307224        0.35954103358813       -0.89543122084455

 Bond Distances (Angstroems)
 ---------------------------
C1-C2=1.3260         C1-C6=1.4706         C1-H7=1.0872         C2-C1=1.3260         C2-C3=1.4706         C2-H8=1.0872         
C3-C2=1.4706         C3-H9=1.0823         C3-H10=1.0835        C4-C5=1.4685         C4-H11=1.0806        C4-H12=1.0836        
C5-C4=1.4685         C5-H13=1.0836        C5-H14=1.0806        C6-C1=1.4706         C6-H15=1.0824        C6-H16=1.0835        
H7-C1=1.0872         H8-C2=1.0872         H9-C3=1.0823         H10-C3=1.0835        H11-C4=1.0806        H12-C4=1.0836        
H13-C5=1.0836        H14-C5=1.0806        H15-C6=1.0824        H16-C6=1.0835        
 C  H  Rav=1.0835 sigma=0.0022  Rmin=1.0806  Rmax=1.0872    10
 C  C  Rav=1.4339 sigma=0.0623  Rmin=1.3260  Rmax=1.4706     4

 selected bond angles (degree)
 --------------------
C6-C1-C2=128.95                H7-C1-C2=117.78                H7-C1-C6=113.27                C3-C2-C1=128.96                
H8-C2-C1=117.78                H8-C2-C3=113.25                H9-C3-C2=114.00                H10-C3-C2=113.95               
H10-C3-H9=112.17               H11-C4-C5=115.36               H12-C4-C5=115.62               H12-C4-H11=113.05              
H13-C5-C4=115.61               H14-C5-C4=115.36               H14-C5-H13=113.07              H15-C6-C1=113.98               
H16-C6-C1=113.99               H16-C6-H15=112.18              

 selected dihedral angles (degree)
 ---------------------------------
C3-C2-C1-C6=  1.32            C3-C2-C1-H7=180.45            H8-C2-C1-C6=180.40            H8-C2-C1-H7=359.52            
H9-C3-C2-C1=231.32            H9-C3-C2-H8= 52.21            H10-C3-C2-C1=100.79           H10-C3-C2-H8=281.68           
H13-C5-C4-H11=307.83          H13-C5-C4-H12= 82.88          H14-C5-C4-H11=172.76          H14-C5-C4-H12=307.81          
H15-C6-C1-C2=231.02           H15-C6-C1-H7= 51.86           H16-C6-C1-C2=100.45           H16-C6-C1-H7=281.29           

 CMA Distance (Angstroems)
 ---------------------------
R(CMA):  2.3520
           -------------------------------------------------
          |                Final Singlepoint                |
           -------------------------------------------------

          ...................................................
          :                      SETUP                      :
          :.................................................:
          :  # basis functions                  34          :
          :  # atomic orbitals                  34          :
          :  # shells                           22          :
          :  # electrons                        34          :
          :  max. iterations                   250          :
          :  Hamiltonian                  GFN2-xTB          :
          :  restarted?                      false          :
          :  GBSA solvation                  false          :
          :  PC potential                    false          :
          :  electronic temp.          300.0000000     K    :
          :  accuracy                    1.0000000          :
          :  -> integral cutoff          0.2500000E+02      :
          :  -> integral neglect         0.1000000E-07      :
          :  -> SCF convergence          0.1000000E-05 Eh   :
          :  -> wf. convergence          0.1000000E-03 e    :
          :  Broyden damping             0.4000000          :
          ...................................................

 iter      E             dE          RMSdq      gap      omega  full diag
   1    -18.0963934 -0.180964E+02  0.500E-05    4.17       0.0  T
   2    -18.0963934 -0.147438E-11  0.379E-05    4.17     659.7  T
   3    -18.0963934 -0.113438E-10  0.187E-05    4.17    1335.0  T

   *** convergence criteria satisfied after 3 iterations ***

         #    Occupation            Energy/Eh            Energy/eV
      -------------------------------------------------------------
         1        2.0000           -0.6138803             -16.7045
       ...           ...                  ...                  ...
        11        2.0000           -0.4677093             -12.7270
        12        2.0000           -0.4605703             -12.5328
        13        2.0000           -0.4422438             -12.0341
        14        2.0000           -0.4382918             -11.9265
        15        2.0000           -0.3953012             -10.7567
        16        2.0000           -0.3850292             -10.4772
        17        2.0000           -0.3665455              -9.9742 (HOMO)
        18                         -0.2131879              -5.8011 (LUMO)
        19                         -0.1804641              -4.9107
        20                         -0.1682650              -4.5787
        21                          0.1152799               3.1369
        22                          0.1333046               3.6274
       ...                                ...                  ...
        34                          0.6480991              17.6357
      -------------------------------------------------------------
                  HL-Gap            0.1533576 Eh            4.1731 eV
             Fermi-level           -0.2898667 Eh           -7.8877 eV

 SCC (total)                   0 d,  0 h,  0 min,  0.006 sec
 SCC setup                      ...        0 min,  0.000 sec (  2.025%)
 Dispersion                     ...        0 min,  0.000 sec (  0.906%)
 classical contributions        ...        0 min,  0.000 sec (  0.370%)
 integral evaluation            ...        0 min,  0.001 sec ( 19.102%)
 iterations                     ...        0 min,  0.001 sec ( 23.914%)
 molecular gradient             ...        0 min,  0.003 sec ( 51.096%)
 printout                       ...        0 min,  0.000 sec (  2.353%)

         :::::::::::::::::::::::::::::::::::::::::::::::::::::
         ::                     SUMMARY                     ::
         :::::::::::::::::::::::::::::::::::::::::::::::::::::
         :: total energy             -17.806783604921 Eh    ::
         :: gradient norm              0.000464505212 Eh/a0 ::
         :: HOMO-LUMO gap              4.173071962743 eV    ::
         ::.................................................::
         :: SCC energy               -18.096393394501 Eh    ::
         :: -> isotropic ES            0.002608309958 Eh    ::
         :: -> anisotropic ES          0.007516715742 Eh    ::
         :: -> anisotropic XC          0.013419502209 Eh    ::
         :: -> dispersion             -0.010677394588 Eh    ::
         :: repulsion energy           0.287791087529 Eh    ::
         :: add. restraining           0.001787885575 Eh    ::
         :: total charge               0.000000000000 e     ::
         :::::::::::::::::::::::::::::::::::::::::::::::::::::

           -------------------------------------------------
          |                Property Printout                |
           -------------------------------------------------

    * Orbital Energies and Occupations

         #    Occupation            Energy/Eh            Energy/eV
      -------------------------------------------------------------
         1        2.0000           -0.6138803             -16.7045
       ...           ...                  ...                  ...
         5        2.0000           -0.5481088             -14.9148
         6        2.0000           -0.5184461             -14.1076
         7        2.0000           -0.5062752             -13.7764
         8        2.0000           -0.4913511             -13.3703
         9        2.0000           -0.4746058             -12.9147
        10        2.0000           -0.4733596             -12.8808
        11        2.0000           -0.4677093             -12.7270
        12        2.0000           -0.4605703             -12.5328
        13        2.0000           -0.4422438             -12.0341
        14        2.0000           -0.4382918             -11.9265
        15        2.0000           -0.3953012             -10.7567
        16        2.0000           -0.3850292             -10.4772
        17        2.0000           -0.3665455              -9.9742 (HOMO)
        18                         -0.2131879              -5.8011 (LUMO)
        19                         -0.1804641              -4.9107
        20                         -0.1682650              -4.5787
        21                          0.1152799               3.1369
        22                          0.1333046               3.6274
        23                          0.1554257               4.2293
        24                          0.1792292               4.8771
        25                          0.1982375               5.3943
        26                          0.2107522               5.7349
        27                          0.2189795               5.9587
        28                          0.2434836               6.6255
       ...                                ...                  ...
        34                          0.6480991              17.6357
      -------------------------------------------------------------
                  HL-Gap            0.1533576 Eh            4.1731 eV
             Fermi-level           -0.2898667 Eh           -7.8877 eV

     #   Z          covCN         q      C6AA      α(0)
     1   6 C        2.887    -0.035    28.872     8.809
     2   6 C        2.887    -0.035    28.872     8.809
     3   6 C        3.257    -0.072    28.578     8.642
     4   6 C        3.255    -0.064    28.433     8.624
     5   6 C        3.255    -0.064    28.436     8.625
     6   6 C        3.257    -0.072    28.580     8.643
     7   1 H        0.925     0.027     2.631     2.536
     8   1 H        0.925     0.027     2.630     2.536
     9   1 H        0.925     0.036     2.497     2.471
    10   1 H        0.925     0.040     2.448     2.447
    11   1 H        0.926     0.035     2.511     2.478
    12   1 H        0.925     0.032     2.553     2.499
    13   1 H        0.925     0.032     2.553     2.499
    14   1 H        0.926     0.035     2.510     2.478
    15   1 H        0.925     0.036     2.498     2.472
    16   1 H        0.925     0.040     2.447     2.446

 Mol. C6AA /au·bohr⁶  :       2302.686210
 Mol. C8AA /au·bohr⁸  :      51921.519813
 Mol. α(0) /au        :         77.012632


Wiberg/Mayer (AO) data.
largest (>0.10) Wiberg bond orders for each atom

 ---------------------------------------------------------------------------
     #   Z sym  total        # sym  WBO       # sym  WBO       # sym  WBO
 ---------------------------------------------------------------------------
     1   6 C    3.992 --     2 C    1.905     6 C    1.062     7 H    0.951
     2   6 C    3.992 --     1 C    1.905     3 C    1.062     8 H    0.950
     3   6 C    3.990 --     2 C    1.062     9 H    0.973    10 H    0.967
                             4 C    0.904
     4   6 C    3.992 --     5 C    1.088    11 H    0.984    12 H    0.970
                             3 C    0.904
     5   6 C    3.992 --     4 C    1.088    14 H    0.984    13 H    0.970
                             6 C    0.904
     6   6 C    3.990 --     1 C    1.062    15 H    0.973    16 H    0.967
                             5 C    0.904
     7   1 H    0.999 --     1 C    0.951
     8   1 H    0.999 --     2 C    0.950
     9   1 H    0.999 --     3 C    0.973
    10   1 H    0.998 --     3 C    0.967
    11   1 H    0.999 --     4 C    0.984
    12   1 H    0.999 --     4 C    0.970
    13   1 H    0.999 --     5 C    0.970
    14   1 H    0.999 --     5 C    0.984
    15   1 H    0.999 --     6 C    0.973
    16   1 H    0.998 --     6 C    0.967
 ---------------------------------------------------------------------------

Topologies differ in total number of bonds
Writing topology from bond orders to xtbtopo.mol

molecular dipole:
                 x           y           z       tot (Debye)
 q only:        0.012       0.067       0.010
   full:        0.012       0.065       0.010       0.170
molecular quadrupole (traceless):
                xx          xy          yy          xz          yz          zz
 q only:        0.682      -0.138      -0.142      -0.048       0.069      -0.541
  q+dip:        1.430      -0.271       0.173       0.312       0.226      -1.603
   full:        0.933      -0.185       0.090       0.220       0.137      -1.023

           -------------------------------------------------
          |                Geometry Summary                 |
           -------------------------------------------------

      molecular mass/u    :       82.1438229
   center of mass at/Å    :       -0.0206603      -0.1196185      -0.0192834
  moments of inertia/u·Å² :        0.1177244E+03   0.1367936E+03   0.2318992E+03
rotational constants/cm⁻¹ :        0.1431957E+00   0.1232340E+00   0.7269381E-01

 * 12 selected distances

     #   Z          #   Z                                           value/Å
     1   6 C        2   6 C                                       1.3260338
     4   6 C        5   6 C                                       1.4685152 (max)
     1   6 C        7   1 H                                       1.0872237
     2   6 C        8   1 H                                       1.0872335
     3   6 C        9   1 H                                       1.0823236
     3   6 C       10   1 H                                       1.0835368
     4   6 C       11   1 H                                       1.0806266
     4   6 C       12   1 H                                       1.0836321
     5   6 C       13   1 H                                       1.0836209
     5   6 C       14   1 H                                       1.0805745 (min)
     6   6 C       15   1 H                                       1.0823581
     6   6 C       16   1 H                                       1.0834694

 * 2 distinct bonds (by element types)

   Z      Z             #   av. dist./Å        max./Å        min./Å
   1 H    6 C          10     1.0834599     1.0872335     1.0805745
   6 C    6 C           2     1.3972745     1.4685152     1.3260338


optimized geometry written to: xtbopt.xyz


           -------------------------------------------------
          | TOTAL ENERGY              -17.806783604921 Eh   |
          | GRADIENT NORM               0.000464505212 Eh/α |
          | HOMO-LUMO GAP               4.173071962743 eV   |
           -------------------------------------------------

------------------------------------------------------------------------
 * finished run on 2025/05/23 at 11:18:31.084     
------------------------------------------------------------------------
 total:
 * wall-time:     0 d,  0 h,  0 min,  0.102 sec
 *  cpu-time:     0 d,  0 h,  0 min,  0.102 sec
 * ratio c/w:     1.000 speedup
 SCF:
 * wall-time:     0 d,  0 h,  0 min,  0.009 sec
 *  cpu-time:     0 d,  0 h,  0 min,  0.009 sec
 * ratio c/w:     1.000 speedup
 ANC optimizer:
 * wall-time:     0 d,  0 h,  0 min,  0.084 sec
 *  cpu-time:     0 d,  0 h,  0 min,  0.084 sec
 * ratio c/w:     1.000 speedup

