      -----------------------------------------------------------      
     |                   =====================                   |     
     |                           x T B                           |     
     |                   =====================                   |     
     |                         S. Grimme                         |     
     |          Mulliken Center for Theoretical Chemistry        |     
     |                    University of Bonn                     |     
      -----------------------------------------------------------      

   * xtb version 6.6.1 (8d0f1dd) compiled by 'conda@1efc2f54142f' on 2023-08-01

   xtb is free software: you can redistribute it and/or modify it under
   the terms of the GNU Lesser General Public License as published by
   the Free Software Foundation, either version 3 of the License, or
   (at your option) any later version.
   
   xtb is distributed in the hope that it will be useful,
   but WITHOUT ANY WARRANTY; without even the implied warranty of
   MERCHANTABILITY or FITNESS FOR A PARTICULAR PURPOSE.  See the
   GNU Lesser General Public License for more details.
   
   Cite this work as:
   * C. Bannwarth, E. Caldeweyher, S. Ehlert, A. Hansen, P. Pracht,
     J. Seibert, S. Spicher, S. Grimme, WIREs Comput. Mol. Sci., 2020, 11,
     e01493. DOI: 10.1002/wcms.1493
   
   for GFN2-xTB:
   * C. Bannwarth, S. Ehlert and S. Grimme., J. Chem. Theory Comput., 2019,
     15, 1652-1671. DOI: 10.1021/acs.jctc.8b01176
   for GFN1-xTB:
   * S. Grimme, C. Bannwarth, P. Shushkov, J. Chem. Theory Comput., 2017,
     13, 1989-2009. DOI: 10.1021/acs.jctc.7b00118
   for GFN0-xTB:
   * P. Pracht, E. Caldeweyher, S. Ehlert, S. Grimme, ChemRxiv, 2019, preprint.
     DOI: 10.26434/chemrxiv.8326202.v1
   for GFN-FF:
   * S. Spicher and S. Grimme, Angew. Chem. Int. Ed., 2020, 59, 15665-15673.
     DOI: 10.1002/anie.202004239
   
   for ALPB and GBSA implicit solvation:
   * S. Ehlert, M. Stahn, S. Spicher, S. Grimme, J. Chem. Theory Comput.,
     2021, 17, 4250-4261. DOI: 10.1021/acs.jctc.1c00471
   
   for DFT-D4:
   * E. Caldeweyher, C. Bannwarth and S. Grimme, J. Chem. Phys., 2017,
     147, 034112. DOI: 10.1063/1.4993215
   * E. Caldeweyher, S. Ehlert, A. Hansen, H. Neugebauer, S. Spicher,
     C. Bannwarth and S. Grimme, J. Chem. Phys., 2019, 150, 154122.
     DOI: 10.1063/1.5090222
   * E. Caldeweyher, J.-M. Mewes, S. Ehlert and S. Grimme, Phys. Chem. Chem. Phys.
     2020, 22, 8499-8512. DOI: 10.1039/D0CP00502A
   
   for sTDA-xTB:
   * S. Grimme and C. Bannwarth, J. Chem. Phys., 2016, 145, 054103.
     DOI: 10.1063/1.4959605
   
   in the mass-spec context:
   * V. Asgeirsson, C. Bauer and S. Grimme, Chem. Sci., 2017, 8, 4879.
     DOI: 10.1039/c7sc00601b
   * J. Koopman and S. Grimme, ACS Omega 2019, 4, 12, 15120-15133.
     DOI: 10.1021/acsomega.9b02011
   
   for metadynamics refer to:
   * S. Grimme, J. Chem. Theory Comput., 2019, 155, 2847-2862
     DOI: 10.1021/acs.jctc.9b00143
   
   for SPH calculations refer to:
   * S. Spicher and S. Grimme, J. Chem. Theory Comput., 2021, 17, 1701-1714
     DOI: 10.1021/acs.jctc.0c01306
   
   with help from (in alphabetical order)
   P. Atkinson, C. Bannwarth, F. Bohle, G. Brandenburg, E. Caldeweyher
   M. Checinski, S. Dohm, S. Ehlert, S. Ehrlich, I. Gerasimov, C. Hölzer
   A. Katbashev, J. Koopman, C. Lavigne, S. Lehtola, F. März, M. Müller,
   F. Musil, H. Neugebauer, J. Pisarek, C. Plett, P. Pracht, F. Pultar,
   J. Seibert, P. Shushkov, S. Spicher, M. Stahn, M. Steiner, T. Strunk,
   J. Stückrath, T. Rose, and J. Unsleber
   
 * started run on 2025/05/23 at 11:18:29.203     

           -------------------------------------------------
          |                Calculation Setup                |
           -------------------------------------------------

          program call               : /home/avcopan/code/other/saddle-search-practice/.pixi/envs/default/bin/xtb path_opt3_xtb.xyz --chrg 0 --uhf 0 --opt --input xcontrol_path_opt3_xtb
          coordinate file            : path_opt3_xtb.xyz
          omp threads                :                     1

   ID    Z sym.   atoms
    1    6 C      1-6
    2    1 H      7-16
constraining bond 3 4 to    1.8480000 Å, actual value:    1.7979123 Å
constraining bond 5 6 to    1.8480000 Å, actual value:    1.7979269 Å

           -------------------------------------------------
          |                 G F N 2 - x T B                 |
           -------------------------------------------------

        Reference                      10.1021/acs.jctc.8b01176
      * Hamiltonian:
        H0-scaling (s, p, d)           1.850000    2.230000    2.230000
        zeta-weighting                 0.500000
      * Dispersion:
        s8                             2.700000
        a1                             0.520000
        a2                             5.000000
        s9                             5.000000
      * Repulsion:
        kExp                           1.500000    1.000000
        rExp                           1.000000
      * Coulomb:
        alpha                          2.000000
        third order                    shell-resolved
        anisotropic                    true
        a3                             3.000000
        a5                             4.000000
        cn-shift                       1.200000
        cn-exp                         4.000000
        max-rad                        5.000000


          ...................................................
          :                      SETUP                      :
          :.................................................:
          :  # basis functions                  34          :
          :  # atomic orbitals                  34          :
          :  # shells                           22          :
          :  # electrons                        34          :
          :  max. iterations                   250          :
          :  Hamiltonian                  GFN2-xTB          :
          :  restarted?                      false          :
          :  GBSA solvation                  false          :
          :  PC potential                    false          :
          :  electronic temp.          300.0000000     K    :
          :  accuracy                    1.0000000          :
          :  -> integral cutoff          0.2500000E+02      :
          :  -> integral neglect         0.1000000E-07      :
          :  -> SCF convergence          0.1000000E-05 Eh   :
          :  -> wf. convergence          0.1000000E-03 e    :
          :  Broyden damping             0.4000000          :
          ...................................................

 iter      E             dE          RMSdq      gap      omega  full diag
   1    -18.1359150 -0.181359E+02  0.325E+00    5.24       0.0  T
   2    -18.1645631 -0.286480E-01  0.184E+00    5.17       1.0  T
   3    -18.1649682 -0.405166E-03  0.675E-01    5.12       1.0  T
   4    -18.1649693 -0.108357E-05  0.191E-01    5.12       1.0  T
   5    -18.1654384 -0.469129E-03  0.547E-02    5.12       1.0  T
   6    -18.1654405 -0.203994E-05  0.167E-02    5.12       1.5  T
   7    -18.1654407 -0.179507E-06  0.210E-03    5.12      11.9  T
   8    -18.1654407  0.512429E-08  0.938E-04    5.12      26.6  T
   9    -18.1654407 -0.991440E-08  0.227E-04    5.12     110.0  T

   *** convergence criteria satisfied after 9 iterations ***

         #    Occupation            Energy/Eh            Energy/eV
      -------------------------------------------------------------
         1        2.0000           -0.6173000             -16.7976
       ...           ...                  ...                  ...
        11        2.0000           -0.4685783             -12.7507
        12        2.0000           -0.4635984             -12.6152
        13        2.0000           -0.4446791             -12.1003
        14        2.0000           -0.4375405             -11.9061
        15        2.0000           -0.4084330             -11.1140
        16        2.0000           -0.3964309             -10.7874
        17        2.0000           -0.3791334             -10.3167 (HOMO)
        18                         -0.1908031              -5.1920 (LUMO)
        19                         -0.1068597              -2.9078
        20                         -0.0842141              -2.2916
        21                          0.1171701               3.1884
        22                          0.1323818               3.6023
       ...                                ...                  ...
        34                          0.6432229              17.5030
      -------------------------------------------------------------
                  HL-Gap            0.1883303 Eh            5.1247 eV
             Fermi-level           -0.2849682 Eh           -7.7544 eV

 SCC (total)                   0 d,  0 h,  0 min,  0.010 sec
 SCC setup                      ...        0 min,  0.000 sec (  1.766%)
 Dispersion                     ...        0 min,  0.000 sec (  1.059%)
 classical contributions        ...        0 min,  0.000 sec (  0.355%)
 integral evaluation            ...        0 min,  0.001 sec ( 13.960%)
 iterations                     ...        0 min,  0.005 sec ( 45.846%)
 molecular gradient             ...        0 min,  0.003 sec ( 34.938%)
 printout                       ...        0 min,  0.000 sec (  1.901%)

         :::::::::::::::::::::::::::::::::::::::::::::::::::::
         ::                     SUMMARY                     ::
         :::::::::::::::::::::::::::::::::::::::::::::::::::::
         :: total energy             -17.846396762650 Eh    ::
         :: gradient norm              0.601568459454 Eh/a0 ::
         :: HOMO-LUMO gap              5.124729397541 eV    ::
         ::.................................................::
         :: SCC energy               -18.165440665506 Eh    ::
         :: -> isotropic ES            0.002525448740 Eh    ::
         :: -> anisotropic ES          0.006264136403 Eh    ::
         :: -> anisotropic XC          0.012653585052 Eh    ::
         :: -> dispersion             -0.009847885935 Eh    ::
         :: repulsion energy           0.283193976531 Eh    ::
         :: add. restraining           0.035825600021 Eh    ::
         :: total charge               0.000000000000 e     ::
         :::::::::::::::::::::::::::::::::::::::::::::::::::::

      ----------------------------------------------------------- 
     |                   =====================                   |
     |                        A N C O P T                        |
     |                   =====================                   |
     |               Approximate Normal Coordinate               |
     |                Rational Function Optimizer                |
      ----------------------------------------------------------- 

          ...................................................
          :                      SETUP                      :
          :.................................................:
          :   optimization level            normal          :
          :   max. optcycles                   200          :
          :   ANC micro-cycles                  20          :
          :   degrees of freedom                42          :
          :.................................................:
          :   RF solver                   davidson          :
          :   write xtbopt.log                true          :
          :   linear?                        false          :
          :   energy convergence         0.5000000E-05 Eh   :
          :   grad. convergence          0.1000000E-02 Eh/α :
          :   maxmium RF displ.          1.0000000          :
          :   Hlow (freq-cutoff)         0.1000000E-01      :
          :   Hmax (freq-cutoff)         5.0000000          :
          :   S6 in model hess.         20.0000000          :
          ...................................................

generating ANC from model Hessian ...
Using Lindh-Hessian (1995)
 Shifting diagonal of input Hessian by    6.4780749706555368E-002
 Lowest  eigenvalues of input Hessian
    0.010000    0.022720    0.038122    0.062335    0.000000    0.000000
    0.000000    0.000000    0.000000    0.000000    0.077586    0.078862
    0.081715    0.089043    0.092977    0.095626    0.100431    0.102304
 Highest eigenvalues
    1.221176    1.273748    1.539277    1.988656    8.643430    8.655133


........................................................................
.............................. CYCLE    1 ..............................
........................................................................

 iter      E             dE          RMSdq      gap      omega  full diag
   1    -18.1654407 -0.181654E+02  0.945E-05    5.12       0.0  T
   2    -18.1654407 -0.456524E-11  0.538E-05    5.12     464.5  T
   3    -18.1654407  0.546763E-11  0.273E-05    5.12     917.4  T
     SCC iter.                  ...        0 min,  0.001 sec
     gradient                   ...        0 min,  0.003 sec
 * total energy  :   -17.8463968 Eh     change       -0.1365237E-09 Eh
   gradient norm :     0.6015686 Eh/α   predicted     0.0000000E+00 (-100.00%)
   displ. norm   :     0.1283451 α      lambda       -0.7202483E-01
   maximum displ.:     0.1185522 α      in ANC's #41, #27, #11, ...

........................................................................
.............................. CYCLE    2 ..............................
........................................................................

 iter      E             dE          RMSdq      gap      omega  full diag
   1    -18.1526413 -0.181526E+02  0.120E-01    5.03       0.0  T
   2    -18.1526534 -0.121030E-04  0.731E-02    5.02       1.0  T
   3    -18.1526534 -0.579371E-07  0.128E-02    5.02       1.9  T
   4    -18.1526536 -0.201495E-06  0.217E-03    5.02      11.5  T
   5    -18.1526537 -0.264718E-07  0.124E-03    5.02      20.2  T
   6    -18.1526537 -0.893299E-08  0.481E-04    5.02      51.9  T
   7    -18.1526537 -0.221370E-10  0.154E-04    5.02     162.8  T
     SCC iter.                  ...        0 min,  0.002 sec
     gradient                   ...        0 min,  0.004 sec
 * total energy  :   -17.8600756 Eh     change       -0.1367886E-01 Eh
   gradient norm :     0.3746694 Eh/α   predicted    -0.3660565E-01 ( 167.61%)
   displ. norm   :     0.0470723 α      lambda       -0.1708795E-01
   maximum displ.:     0.0454986 α      in ANC's #41, #2, #9, ...

........................................................................
.............................. CYCLE    3 ..............................
........................................................................

 iter      E             dE          RMSdq      gap      omega  full diag
   1    -18.1554038 -0.181554E+02  0.652E-02    5.07       0.0  T
   2    -18.1554072 -0.343063E-05  0.381E-02    5.07       1.0  T
   3    -18.1554072 -0.709127E-08  0.743E-03    5.07       3.4  T
   4    -18.1554073 -0.504232E-07  0.661E-04    5.07      37.8  T
   5    -18.1554073 -0.222827E-08  0.372E-04    5.07      67.3  T
     SCC iter.                  ...        0 min,  0.002 sec
     gradient                   ...        0 min,  0.003 sec
 * total energy  :   -17.8686839 Eh     change       -0.8608270E-02 Eh
   gradient norm :     0.0033034 Eh/α   predicted    -0.8562909E-02 (  -0.53%)
   displ. norm   :     0.0163446 α      lambda       -0.3093010E-04
   maximum displ.:     0.0069677 α      in ANC's #9, #11, #18, ...

........................................................................
.............................. CYCLE    4 ..............................
........................................................................

 iter      E             dE          RMSdq      gap      omega  full diag
   1    -18.1545812 -0.181546E+02  0.172E-02    5.07       0.0  T
   2    -18.1545813 -0.585052E-07  0.991E-03    5.07       2.5  T
   3    -18.1545813  0.865590E-08  0.128E-03    5.07      19.6  T
   4    -18.1545813 -0.123684E-07  0.465E-04    5.07      53.8  T
   5    -18.1545813 -0.257460E-08  0.145E-04    5.07     172.8  T
     SCC iter.                  ...        0 min,  0.002 sec
     gradient                   ...        0 min,  0.003 sec
 * total energy  :   -17.8687066 Eh     change       -0.2269516E-04 Eh
   gradient norm :     0.0012919 Eh/α   predicted    -0.1546922E-04 ( -31.84%)
   displ. norm   :     0.0357467 α      lambda       -0.2090260E-04
   maximum displ.:     0.0185727 α      in ANC's #1, #9, #11, ...

........................................................................
.............................. CYCLE    5 ..............................
........................................................................

 iter      E             dE          RMSdq      gap      omega  full diag
   1    -18.1531701 -0.181532E+02  0.386E-02    5.08       0.0  T
   2    -18.1531704 -0.251491E-06  0.224E-02    5.08       1.1  T
   3    -18.1531702  0.132240E-06  0.371E-03    5.08       6.7  T
   4    -18.1531704 -0.140242E-06  0.140E-03    5.08      17.8  T
   5    -18.1531704 -0.252336E-07  0.316E-04    5.08      79.1  T
   6    -18.1531704 -0.364963E-09  0.180E-04    5.08     138.5  T
     SCC iter.                  ...        0 min,  0.002 sec
     gradient                   ...        0 min,  0.003 sec
 * total energy  :   -17.8687032 Eh     change        0.3432127E-05 Eh
   gradient norm :     0.0027445 Eh/α   predicted    -0.1045681E-04 (-404.67%)
   displ. norm   :     0.0448856 α      lambda       -0.4386418E-04
   maximum displ.:     0.0380949 α      in ANC's #1, #9, #2, ...

........................................................................
.............................. CYCLE    6 ..............................
........................................................................

 iter      E             dE          RMSdq      gap      omega  full diag
   1    -18.1523581 -0.181524E+02  0.508E-02    5.08       0.0  T
   2    -18.1523583 -0.229669E-06  0.300E-02    5.08       1.0  T
   3    -18.1523579  0.395720E-06  0.569E-03    5.08       4.4  T
   4    -18.1523584 -0.429463E-06  0.140E-03    5.08      17.8  T
   5    -18.1523584 -0.234811E-07  0.364E-04    5.08      68.8  T
   6    -18.1523584 -0.776232E-10  0.201E-04    5.08     124.5  T
     SCC iter.                  ...        0 min,  0.002 sec
     gradient                   ...        0 min,  0.003 sec
 * total energy  :   -17.8686825 Eh     change        0.2063720E-04 Eh
   gradient norm :     0.0036560 Eh/α   predicted    -0.2197634E-04 (-206.49%)
   displ. norm   :     0.0331231 α      lambda       -0.7193608E-04
   maximum displ.:     0.0204858 α      in ANC's #1, #9, #11, ...

........................................................................
.............................. CYCLE    7 ..............................
........................................................................

 iter      E             dE          RMSdq      gap      omega  full diag
   1    -18.1538354 -0.181538E+02  0.368E-02    5.08       0.0  T
   2    -18.1538356 -0.257662E-06  0.215E-02    5.08       1.2  T
   3    -18.1538355  0.162527E-06  0.398E-03    5.08       6.3  T
   4    -18.1538357 -0.177758E-06  0.132E-03    5.08      18.9  T
   5    -18.1538357 -0.218408E-07  0.339E-04    5.08      73.7  T
   6    -18.1538357 -0.664393E-09  0.182E-04    5.08     137.4  T
     SCC iter.                  ...        0 min,  0.002 sec
     gradient                   ...        0 min,  0.004 sec
 * total energy  :   -17.8687191 Eh     change       -0.3656018E-04 Eh
   gradient norm :     0.0006901 Eh/α   predicted    -0.3600978E-04 (  -1.51%)
   displ. norm   :     0.0113919 α      lambda       -0.3112153E-05
   maximum displ.:     0.0090767 α      in ANC's #2, #6, #15, ...

........................................................................
.............................. CYCLE    8 ..............................
........................................................................

 iter      E             dE          RMSdq      gap      omega  full diag
   1    -18.1539094 -0.181539E+02  0.181E-02    5.08       0.0  T
   2    -18.1539094 -0.685142E-08  0.107E-02    5.08       2.3  T
   3    -18.1539094  0.229827E-07  0.131E-03    5.08      19.1  T
   4    -18.1539094 -0.272374E-07  0.141E-04    5.08     176.7  T
   5    -18.1539094  0.270468E-10  0.930E-05    5.08     268.9  T
     SCC iter.                  ...        0 min,  0.001 sec
     gradient                   ...        0 min,  0.003 sec
 * total energy  :   -17.8687166 Eh     change        0.2439168E-05 Eh
   gradient norm :     0.0014102 Eh/α   predicted    -0.1555620E-05 (-163.78%)
   displ. norm   :     0.0129253 α      lambda       -0.5826257E-05
   maximum displ.:     0.0125599 α      in ANC's #2, #9, #4, ...

........................................................................
.............................. CYCLE    9 ..............................
........................................................................

 iter      E             dE          RMSdq      gap      omega  full diag
   1    -18.1539927 -0.181540E+02  0.114E-02    5.08       0.0  T
   2    -18.1539927 -0.431558E-08  0.675E-03    5.08       3.7  T
   3    -18.1539926  0.158959E-07  0.108E-03    5.08      23.1  T
   4    -18.1539927 -0.186484E-07  0.134E-04    5.08     186.7  T
   5    -18.1539927  0.272848E-10  0.813E-05    5.08     307.4  T
     SCC iter.                  ...        0 min,  0.001 sec
     gradient                   ...        0 min,  0.003 sec
 * total energy  :   -17.8687219 Eh     change       -0.5231899E-05 Eh
   gradient norm :     0.0002211 Eh/α   predicted    -0.2914451E-05 ( -44.29%)
   displ. norm   :     0.0124300 α      lambda       -0.1508683E-05
   maximum displ.:     0.0094225 α      in ANC's #2, #9, #6, ...

........................................................................
.............................. CYCLE   10 ..............................
........................................................................

 iter      E             dE          RMSdq      gap      omega  full diag
   1    -18.1539623 -0.181540E+02  0.334E-03    5.08       0.0  T
   2    -18.1539623 -0.124720E-08  0.199E-03    5.08      12.6  T
   3    -18.1539623  0.136404E-08  0.370E-04    5.08      67.6  T
   4    -18.1539623 -0.183441E-08  0.110E-04    5.08     227.0  T
     SCC iter.                  ...        0 min,  0.002 sec
     gradient                   ...        0 min,  0.003 sec
 * total energy  :   -17.8687237 Eh     change       -0.1819747E-05 Eh
   gradient norm :     0.0003669 Eh/α   predicted    -0.7543599E-06 ( -58.55%)
   displ. norm   :     0.0322853 α      lambda       -0.3081711E-05
   maximum displ.:     0.0222695 α      in ANC's #2, #9, #6, ...

   *** GEOMETRY OPTIMIZATION CONVERGED AFTER 10 ITERATIONS ***

------------------------------------------------------------------------
 total energy gain   :        -0.0223269 Eh      -14.0104 kcal/mol
 total RMSD          :         0.0310422 a0        0.0164 Å
 total power (kW/mol):        -5.8619341 (step) -828.5539 (real)
------------------------------------------------------------------------

 ANCopt (total)                0 d,  0 h,  0 min,  0.071 sec
 optimizer setup                ...        0 min,  0.000 sec (  0.173%)
 model hessian                  ...        0 min,  0.006 sec (  7.930%)
 ANC generation                 ...        0 min,  0.000 sec (  0.473%)
 coordinate transformation      ...        0 min,  0.000 sec (  0.081%)
 single point calculation       ...        0 min,  0.062 sec ( 87.029%)
 optimization log               ...        0 min,  0.001 sec (  1.337%)
 hessian update                 ...        0 min,  0.000 sec (  0.117%)
 rational function              ...        0 min,  0.001 sec (  1.602%)

================
 final structure:
================
16
 xtb: 6.6.1 (8d0f1dd)
C           -0.89471123418823       -1.29897787726435       -0.19209232335923
C            0.41041499588572       -1.51249160121497       -0.26151513411650
C            1.49033132797113       -0.51091428571780       -0.11503930371076
C            0.80850107205548        1.19022433444303       -0.24389858401014
C           -0.38787874238977        1.25321552012840        0.63953242012192
C           -1.57928493687037       -0.00570993877146        0.03036828520072
H           -1.56774962285372       -2.14040896298043       -0.32041171038244
H            0.76439961534645       -2.52415716231640       -0.43090833472234
H            2.23649754525968       -0.58680183628361       -0.89942234895903
H            1.96211964216603       -0.55254482173166        0.86299740655788
H            0.57492613838669        1.33057698439326       -1.29256782526510
H            1.61852814289455        1.84074813620158        0.07128753572726
H           -0.92328398192770        2.19593017880367        0.58275445487724
H           -0.17715751557234        0.98013983027103        1.66666749033619
H           -2.35120384672878       -0.06948864541784        0.79052469446951
H           -1.98437859943483        0.41057014745754       -0.88804672276518

 Bond Distances (Angstroems)
 ---------------------------
C1-C2=1.3243         C1-C6=1.4801         C1-H7=1.0851         C2-C1=1.3243         C2-C3=1.4801         C2-H8=1.0851         
C3-C2=1.4801         C3-C4=1.8372         C3-H9=1.0853         C3-H10=1.0867        C4-C3=1.8372         C4-C5=1.4885         
C4-H11=1.0835        C4-H12=1.0857        C5-C4=1.4885         C5-C6=1.8372         C5-H13=1.0856        C5-H14=1.0835        
C6-C1=1.4801         C6-C5=1.8372         C6-H15=1.0852        C6-H16=1.0867        H7-C1=1.0851         H8-C2=1.0851         
H9-C3=1.0853         H10-C3=1.0867        H11-C4=1.0835        H12-C4=1.0857        H13-C5=1.0856        H14-C5=1.0835        
H15-C6=1.0852        H16-C6=1.0867        
 C  H  Rav=1.0852 sigma=0.0010  Rmin=1.0835  Rmax=1.0867    10
 C  C  Rav=1.5746 sigma=0.1940  Rmin=1.3243  Rmax=1.8372     6

 selected bond angles (degree)
 --------------------
C6-C1-C2=127.20                H7-C1-C2=118.69                H7-C1-C6=114.11                C3-C2-C1=127.21                
H8-C2-C1=118.69                H8-C2-C3=114.10                C4-C3-C2=110.42                H9-C3-C2=112.51                
H9-C3-C4=105.62                H10-C3-C2=112.33               H10-C3-C4=105.05               H10-C3-H9=110.45               
C5-C4-C3=107.21                H11-C4-C3=105.54               H11-C4-C5=113.31               H12-C4-C3=104.92               
H12-C4-C5=113.70               H12-C4-H11=111.36              C6-C5-C4=107.18                H13-C5-C4=113.71               
H13-C5-C6=104.94               H14-C5-C4=113.31               H14-C5-C6=105.53               H14-C5-H13=111.37              
C5-C6-C1=110.40                H15-C6-C1=112.51               H15-C6-C5=105.62               H16-C6-C1=112.34               
H16-C6-C5=105.04               H16-C6-H15=110.45              

 selected dihedral angles (degree)
 ---------------------------------
C3-C2-C1-C6=  0.88            C3-C2-C1-H7=180.03            H8-C2-C1-C6=180.02            H8-C2-C1-H7=359.17            
C4-C3-C2-C1=345.41            C4-C3-C2-H8=166.24            H9-C3-C2-C1=227.69            H9-C3-C2-H8= 48.52            
H10-C3-C2-C1=102.31           H10-C3-C2-H8=283.14           C5-C4-C3-C2= 47.72            C5-C4-C3-H9=169.60            
C5-C4-C3-H10=286.40           H11-C4-C3-C2=286.66           H11-C4-C3-H9= 48.54           H11-C4-C3-H10=165.33          
H12-C4-C3-C2=168.93           H12-C4-C3-H9=290.81           H12-C4-C3-H10= 47.60          C6-C5-C4-C3=300.12            
C6-C5-C4-H11= 56.14           C6-C5-C4-H12=184.62           H13-C5-C4-C3=184.61           H13-C5-C4-H11=300.64          
H13-C5-C4-H12= 69.12          H14-C5-C4-C3= 56.12           H14-C5-C4-H11=172.14          H14-C5-C4-H12=300.62          
C5-C6-C1-C2=345.26            C5-C6-C1-H7=166.08            H15-C6-C1-C2=227.54           H15-C6-C1-H7= 48.36           
H16-C6-C1-C2=102.15           H16-C6-C1-H7=282.96           C1-C6-C5-C4= 47.85            C1-C6-C5-H13=169.06           
C1-C6-C5-H14=286.80           H15-C6-C5-C4=169.73           H15-C6-C5-H13=290.94          H15-C6-C5-H14= 48.69          
H16-C6-C5-C4=286.52           H16-C6-C5-H13= 47.73          H16-C6-C5-H14=165.48          
           -------------------------------------------------
          |                Final Singlepoint                |
           -------------------------------------------------

          ...................................................
          :                      SETUP                      :
          :.................................................:
          :  # basis functions                  34          :
          :  # atomic orbitals                  34          :
          :  # shells                           22          :
          :  # electrons                        34          :
          :  max. iterations                   250          :
          :  Hamiltonian                  GFN2-xTB          :
          :  restarted?                      false          :
          :  GBSA solvation                  false          :
          :  PC potential                    false          :
          :  electronic temp.          300.0000000     K    :
          :  accuracy                    1.0000000          :
          :  -> integral cutoff          0.2500000E+02      :
          :  -> integral neglect         0.1000000E-07      :
          :  -> SCF convergence          0.1000000E-05 Eh   :
          :  -> wf. convergence          0.1000000E-03 e    :
          :  Broyden damping             0.4000000          :
          ...................................................

 iter      E             dE          RMSdq      gap      omega  full diag
   1    -18.1539623 -0.181540E+02  0.600E-05    5.08       0.0  T
   2    -18.1539623 -0.401457E-11  0.485E-05    5.08     515.6  T
   3    -18.1539623 -0.280131E-10  0.162E-05    5.08    1541.6  T

   *** convergence criteria satisfied after 3 iterations ***

         #    Occupation            Energy/Eh            Energy/eV
      -------------------------------------------------------------
         1        2.0000           -0.6163266             -16.7711
       ...           ...                  ...                  ...
        11        2.0000           -0.4684602             -12.7475
        12        2.0000           -0.4630850             -12.6012
        13        2.0000           -0.4431073             -12.0576
        14        2.0000           -0.4385777             -11.9343
        15        2.0000           -0.4062648             -11.0550
        16        2.0000           -0.3938180             -10.7163
        17        2.0000           -0.3784150             -10.2972 (HOMO)
        18                         -0.1918105              -5.2194 (LUMO)
        19                         -0.1262547              -3.4356
        20                         -0.1030269              -2.8035
        21                          0.1168007               3.1783
        22                          0.1332137               3.6249
       ...                                ...                  ...
        34                          0.6440497              17.5255
      -------------------------------------------------------------
                  HL-Gap            0.1866045 Eh            5.0778 eV
             Fermi-level           -0.2851127 Eh           -7.7583 eV

 SCC (total)                   0 d,  0 h,  0 min,  0.005 sec
 SCC setup                      ...        0 min,  0.000 sec (  2.004%)
 Dispersion                     ...        0 min,  0.000 sec (  0.902%)
 classical contributions        ...        0 min,  0.000 sec (  0.416%)
 integral evaluation            ...        0 min,  0.001 sec ( 19.324%)
 iterations                     ...        0 min,  0.001 sec ( 20.298%)
 molecular gradient             ...        0 min,  0.003 sec ( 54.283%)
 printout                       ...        0 min,  0.000 sec (  2.512%)

         :::::::::::::::::::::::::::::::::::::::::::::::::::::
         ::                     SUMMARY                     ::
         :::::::::::::::::::::::::::::::::::::::::::::::::::::
         :: total energy             -17.868723690634 Eh    ::
         :: gradient norm              0.000366562167 Eh/a0 ::
         :: HOMO-LUMO gap              5.077766587095 eV    ::
         ::.................................................::
         :: SCC energy               -18.153962332408 Eh    ::
         :: -> isotropic ES            0.002526411320 Eh    ::
         :: -> anisotropic ES          0.006529054138 Eh    ::
         :: -> anisotropic XC          0.012785461306 Eh    ::
         :: -> dispersion             -0.009847723867 Eh    ::
         :: repulsion energy           0.283555260705 Eh    ::
         :: add. restraining           0.001658301171 Eh    ::
         :: total charge              -0.000000000000 e     ::
         :::::::::::::::::::::::::::::::::::::::::::::::::::::

           -------------------------------------------------
          |                Property Printout                |
           -------------------------------------------------

    * Orbital Energies and Occupations

         #    Occupation            Energy/Eh            Energy/eV
      -------------------------------------------------------------
         1        2.0000           -0.6163266             -16.7711
       ...           ...                  ...                  ...
         5        2.0000           -0.5530902             -15.0504
         6        2.0000           -0.5208688             -14.1736
         7        2.0000           -0.5103798             -13.8881
         8        2.0000           -0.4921282             -13.3915
         9        2.0000           -0.4777612             -13.0005
        10        2.0000           -0.4703671             -12.7993
        11        2.0000           -0.4684602             -12.7475
        12        2.0000           -0.4630850             -12.6012
        13        2.0000           -0.4431073             -12.0576
        14        2.0000           -0.4385777             -11.9343
        15        2.0000           -0.4062648             -11.0550
        16        2.0000           -0.3938180             -10.7163
        17        2.0000           -0.3784150             -10.2972 (HOMO)
        18                         -0.1918105              -5.2194 (LUMO)
        19                         -0.1262547              -3.4356
        20                         -0.1030269              -2.8035
        21                          0.1168007               3.1783
        22                          0.1332137               3.6249
        23                          0.1569276               4.2702
        24                          0.1664156               4.5284
        25                          0.1885126               5.1297
        26                          0.1938807               5.2758
        27                          0.2223526               6.0505
        28                          0.2337625               6.3610
       ...                                ...                  ...
        34                          0.6440497              17.5255
      -------------------------------------------------------------
                  HL-Gap            0.1866045 Eh            5.0778 eV
             Fermi-level           -0.2851127 Eh           -7.7583 eV

     #   Z          covCN         q      C6AA      α(0)
     1   6 C        2.887    -0.037    28.918     8.816
     2   6 C        2.887    -0.037    28.918     8.816
     3   6 C        3.622    -0.066    22.246     6.799
     4   6 C        3.619    -0.061    22.169     6.790
     5   6 C        3.619    -0.061    22.169     6.791
     6   6 C        3.622    -0.066    22.246     6.799
     7   1 H        0.925     0.024     2.677     2.559
     8   1 H        0.925     0.024     2.677     2.559
     9   1 H        0.925     0.036     2.509     2.477
    10   1 H        0.925     0.040     2.450     2.448
    11   1 H        0.925     0.035     2.510     2.478
    12   1 H        0.925     0.029     2.596     2.520
    13   1 H        0.925     0.029     2.596     2.520
    14   1 H        0.925     0.035     2.510     2.477
    15   1 H        0.925     0.035     2.510     2.477
    16   1 H        0.925     0.040     2.449     2.447

 Mol. C6AA /au·bohr⁶  :       2070.672233
 Mol. C8AA /au·bohr⁸  :      45975.264738
 Mol. α(0) /au        :         69.772659


Wiberg/Mayer (AO) data.
largest (>0.10) Wiberg bond orders for each atom

 ---------------------------------------------------------------------------
     #   Z sym  total        # sym  WBO       # sym  WBO       # sym  WBO
 ---------------------------------------------------------------------------
     1   6 C    3.992 --     2 C    1.916     6 C    1.048     7 H    0.959
     2   6 C    3.992 --     1 C    1.916     3 C    1.048     8 H    0.959
     3   6 C    3.994 --     2 C    1.048     9 H    0.973    10 H    0.966
                             4 C    0.948
     4   6 C    3.994 --     5 C    1.053    11 H    0.984    12 H    0.976
                             3 C    0.948
     5   6 C    3.994 --     4 C    1.053    14 H    0.984    13 H    0.976
                             6 C    0.948
     6   6 C    3.994 --     1 C    1.048    15 H    0.974    16 H    0.966
                             5 C    0.948
     7   1 H    0.999 --     1 C    0.959
     8   1 H    0.999 --     2 C    0.959
     9   1 H    0.999 --     3 C    0.973
    10   1 H    0.998 --     3 C    0.966
    11   1 H    0.999 --     4 C    0.984
    12   1 H    0.999 --     4 C    0.976
    13   1 H    0.999 --     5 C    0.976
    14   1 H    0.999 --     5 C    0.984
    15   1 H    0.999 --     6 C    0.974
    16   1 H    0.998 --     6 C    0.966
 ---------------------------------------------------------------------------

Topologies differ in total number of bonds
Writing topology from bond orders to xtbtopo.mol

molecular dipole:
                 x           y           z       tot (Debye)
 q only:        0.016       0.094       0.015
   full:        0.017       0.100       0.016       0.260
molecular quadrupole (traceless):
                xx          xy          yy          xz          yz          zz
 q only:        0.741      -0.178      -0.292      -0.028       0.026      -0.449
  q+dip:        1.482      -0.340      -0.151       0.316       0.128      -1.331
   full:        1.002      -0.251      -0.215       0.209       0.049      -0.787

           -------------------------------------------------
          |                Geometry Summary                 |
           -------------------------------------------------

      molecular mass/u    :       82.1438229
   center of mass at/Å    :       -0.0204429      -0.1184965      -0.0191038
  moments of inertia/u·Å² :        0.1151603E+03   0.1229203E+03   0.2157869E+03
rotational constants/cm⁻¹ :        0.1463840E+00   0.1371428E+00   0.7812168E-01

 * 12 selected distances

     #   Z          #   Z                                           value/Å
     1   6 C        2   6 C                                       1.3242970
     4   6 C        5   6 C                                       1.4885373 (max)
     1   6 C        7   1 H                                       1.0851051
     2   6 C        8   1 H                                       1.0851113
     3   6 C        9   1 H                                       1.0852557
     3   6 C       10   1 H                                       1.0866800
     4   6 C       11   1 H                                       1.0834960 (min)
     4   6 C       12   1 H                                       1.0856646
     5   6 C       13   1 H                                       1.0856305
     5   6 C       14   1 H                                       1.0835038
     6   6 C       15   1 H                                       1.0852486
     6   6 C       16   1 H                                       1.0866813

 * 2 distinct bonds (by element types)

   Z      Z             #   av. dist./Å        max./Å        min./Å
   1 H    6 C          10     1.0852377     1.0866813     1.0834960
   6 C    6 C           2     1.4064171     1.4885373     1.3242970


optimized geometry written to: xtbopt.xyz


           -------------------------------------------------
          | TOTAL ENERGY              -17.868723690634 Eh   |
          | GRADIENT NORM               0.000366562167 Eh/α |
          | HOMO-LUMO GAP               5.077766587095 eV   |
           -------------------------------------------------

------------------------------------------------------------------------
 * finished run on 2025/05/23 at 11:18:29.298     
------------------------------------------------------------------------
 total:
 * wall-time:     0 d,  0 h,  0 min,  0.095 sec
 *  cpu-time:     0 d,  0 h,  0 min,  0.095 sec
 * ratio c/w:     1.000 speedup
 SCF:
 * wall-time:     0 d,  0 h,  0 min,  0.010 sec
 *  cpu-time:     0 d,  0 h,  0 min,  0.010 sec
 * ratio c/w:     1.000 speedup
 ANC optimizer:
 * wall-time:     0 d,  0 h,  0 min,  0.077 sec
 *  cpu-time:     0 d,  0 h,  0 min,  0.077 sec
 * ratio c/w:     1.000 speedup

