      -----------------------------------------------------------      
     |                   =====================                   |     
     |                           x T B                           |     
     |                   =====================                   |     
     |                         S. Grimme                         |     
     |          Mulliken Center for Theoretical Chemistry        |     
     |                    University of Bonn                     |     
      -----------------------------------------------------------      

   * xtb version 6.6.1 (8d0f1dd) compiled by 'conda@1efc2f54142f' on 2023-08-01

   xtb is free software: you can redistribute it and/or modify it under
   the terms of the GNU Lesser General Public License as published by
   the Free Software Foundation, either version 3 of the License, or
   (at your option) any later version.
   
   xtb is distributed in the hope that it will be useful,
   but WITHOUT ANY WARRANTY; without even the implied warranty of
   MERCHANTABILITY or FITNESS FOR A PARTICULAR PURPOSE.  See the
   GNU Lesser General Public License for more details.
   
   Cite this work as:
   * C. Bannwarth, E. Caldeweyher, S. Ehlert, A. Hansen, P. Pracht,
     J. Seibert, S. Spicher, S. Grimme, WIREs Comput. Mol. Sci., 2020, 11,
     e01493. DOI: 10.1002/wcms.1493
   
   for GFN2-xTB:
   * C. Bannwarth, S. Ehlert and S. Grimme., J. Chem. Theory Comput., 2019,
     15, 1652-1671. DOI: 10.1021/acs.jctc.8b01176
   for GFN1-xTB:
   * S. Grimme, C. Bannwarth, P. Shushkov, J. Chem. Theory Comput., 2017,
     13, 1989-2009. DOI: 10.1021/acs.jctc.7b00118
   for GFN0-xTB:
   * P. Pracht, E. Caldeweyher, S. Ehlert, S. Grimme, ChemRxiv, 2019, preprint.
     DOI: 10.26434/chemrxiv.8326202.v1
   for GFN-FF:
   * S. Spicher and S. Grimme, Angew. Chem. Int. Ed., 2020, 59, 15665-15673.
     DOI: 10.1002/anie.202004239
   
   for ALPB and GBSA implicit solvation:
   * S. Ehlert, M. Stahn, S. Spicher, S. Grimme, J. Chem. Theory Comput.,
     2021, 17, 4250-4261. DOI: 10.1021/acs.jctc.1c00471
   
   for DFT-D4:
   * E. Caldeweyher, C. Bannwarth and S. Grimme, J. Chem. Phys., 2017,
     147, 034112. DOI: 10.1063/1.4993215
   * E. Caldeweyher, S. Ehlert, A. Hansen, H. Neugebauer, S. Spicher,
     C. Bannwarth and S. Grimme, J. Chem. Phys., 2019, 150, 154122.
     DOI: 10.1063/1.5090222
   * E. Caldeweyher, J.-M. Mewes, S. Ehlert and S. Grimme, Phys. Chem. Chem. Phys.
     2020, 22, 8499-8512. DOI: 10.1039/D0CP00502A
   
   for sTDA-xTB:
   * S. Grimme and C. Bannwarth, J. Chem. Phys., 2016, 145, 054103.
     DOI: 10.1063/1.4959605
   
   in the mass-spec context:
   * V. Asgeirsson, C. Bauer and S. Grimme, Chem. Sci., 2017, 8, 4879.
     DOI: 10.1039/c7sc00601b
   * J. Koopman and S. Grimme, ACS Omega 2019, 4, 12, 15120-15133.
     DOI: 10.1021/acsomega.9b02011
   
   for metadynamics refer to:
   * S. Grimme, J. Chem. Theory Comput., 2019, 155, 2847-2862
     DOI: 10.1021/acs.jctc.9b00143
   
   for SPH calculations refer to:
   * S. Spicher and S. Grimme, J. Chem. Theory Comput., 2021, 17, 1701-1714
     DOI: 10.1021/acs.jctc.0c01306
   
   with help from (in alphabetical order)
   P. Atkinson, C. Bannwarth, F. Bohle, G. Brandenburg, E. Caldeweyher
   M. Checinski, S. Dohm, S. Ehlert, S. Ehrlich, I. Gerasimov, C. Hölzer
   A. Katbashev, J. Koopman, C. Lavigne, S. Lehtola, F. März, M. Müller,
   F. Musil, H. Neugebauer, J. Pisarek, C. Plett, P. Pracht, F. Pultar,
   J. Seibert, P. Shushkov, S. Spicher, M. Stahn, M. Steiner, T. Strunk,
   J. Stückrath, T. Rose, and J. Unsleber
   
 * started run on 2025/05/23 at 11:18:27.552     

           -------------------------------------------------
          |                Calculation Setup                |
           -------------------------------------------------

          program call               : /home/avcopan/code/other/saddle-search-practice/.pixi/envs/default/bin/xtb path_opt-1_xtb.xyz --chrg 0 --uhf 0 --opt --input xcontrol_path_opt-1_xtb
          coordinate file            : path_opt-1_xtb.xyz
          omp threads                :                     1

   ID    Z sym.   atoms
    1    6 C      1-6
    2    1 H      7-16
constraining bond 3 4 to    1.5257000 Å, actual value:    1.5257410 Å
constraining bond 5 6 to    1.5258000 Å, actual value:    1.5258428 Å

           -------------------------------------------------
          |                 G F N 2 - x T B                 |
           -------------------------------------------------

        Reference                      10.1021/acs.jctc.8b01176
      * Hamiltonian:
        H0-scaling (s, p, d)           1.850000    2.230000    2.230000
        zeta-weighting                 0.500000
      * Dispersion:
        s8                             2.700000
        a1                             0.520000
        a2                             5.000000
        s9                             5.000000
      * Repulsion:
        kExp                           1.500000    1.000000
        rExp                           1.000000
      * Coulomb:
        alpha                          2.000000
        third order                    shell-resolved
        anisotropic                    true
        a3                             3.000000
        a5                             4.000000
        cn-shift                       1.200000
        cn-exp                         4.000000
        max-rad                        5.000000


          ...................................................
          :                      SETUP                      :
          :.................................................:
          :  # basis functions                  34          :
          :  # atomic orbitals                  34          :
          :  # shells                           22          :
          :  # electrons                        34          :
          :  max. iterations                   250          :
          :  Hamiltonian                  GFN2-xTB          :
          :  restarted?                      false          :
          :  GBSA solvation                  false          :
          :  PC potential                    false          :
          :  electronic temp.          300.0000000     K    :
          :  accuracy                    1.0000000          :
          :  -> integral cutoff          0.2500000E+02      :
          :  -> integral neglect         0.1000000E-07      :
          :  -> SCF convergence          0.1000000E-05 Eh   :
          :  -> wf. convergence          0.1000000E-03 e    :
          :  Broyden damping             0.4000000          :
          ...................................................

 iter      E             dE          RMSdq      gap      omega  full diag
   1    -18.1655621 -0.181656E+02  0.330E+00    5.17       0.0  T
   2    -18.2033406 -0.377785E-01  0.191E+00    5.10       1.0  T
   3    -18.2038640 -0.523395E-03  0.780E-01    5.05       1.0  T
   4    -18.2039783 -0.114330E-03  0.794E-02    5.05       1.0  T
   5    -18.2039842 -0.587008E-05  0.433E-02    5.05       1.0  T
   6    -18.2039844 -0.221443E-06  0.450E-03    5.05       5.6  T
   7    -18.2039845 -0.124170E-06  0.210E-03    5.05      11.9  T
   8    -18.2039845 -0.337953E-08  0.140E-03    5.05      17.8  T
   9    -18.2039845 -0.175795E-07  0.175E-04    5.05     143.1  T
  10    -18.2039845 -0.131521E-10  0.627E-05    5.05     398.7  T

   *** convergence criteria satisfied after 10 iterations ***

         #    Occupation            Energy/Eh            Energy/eV
      -------------------------------------------------------------
         1        2.0000           -0.6286936             -17.1076
       ...           ...                  ...                  ...
        11        2.0000           -0.4662487             -12.6873
        12        2.0000           -0.4637812             -12.6201
        13        2.0000           -0.4589007             -12.4873
        14        2.0000           -0.4244609             -11.5502
        15        2.0000           -0.4172806             -11.3548
        16        2.0000           -0.4095405             -11.1442
        17        2.0000           -0.3786434             -10.3034 (HOMO)
        18                         -0.1929271              -5.2498 (LUMO)
        19                          0.0883151               2.4032
        20                          0.0950102               2.5854
        21                          0.0965189               2.6264
        22                          0.1099293               2.9913
       ...                                ...                  ...
        34                          0.5942883              16.1714
      -------------------------------------------------------------
                  HL-Gap            0.1857163 Eh            5.0536 eV
             Fermi-level           -0.2857853 Eh           -7.7766 eV

 SCC (total)                   0 d,  0 h,  0 min,  0.008 sec
 SCC setup                      ...        0 min,  0.000 sec (  1.688%)
 Dispersion                     ...        0 min,  0.000 sec (  1.163%)
 classical contributions        ...        0 min,  0.000 sec (  0.340%)
 integral evaluation            ...        0 min,  0.001 sec ( 13.129%)
 iterations                     ...        0 min,  0.004 sec ( 48.952%)
 molecular gradient             ...        0 min,  0.003 sec ( 32.747%)
 printout                       ...        0 min,  0.000 sec (  1.816%)

         :::::::::::::::::::::::::::::::::::::::::::::::::::::
         ::                     SUMMARY                     ::
         :::::::::::::::::::::::::::::::::::::::::::::::::::::
         :: total energy             -17.929877263811 Eh    ::
         :: gradient norm              0.034840784896 Eh/a0 ::
         :: HOMO-LUMO gap              5.053597669188 eV    ::
         ::.................................................::
         :: SCC energy               -18.203984530442 Eh    ::
         :: -> isotropic ES            0.002082866938 Eh    ::
         :: -> anisotropic ES          0.004947881940 Eh    ::
         :: -> anisotropic XC          0.011876641750 Eh    ::
         :: -> dispersion             -0.010041112311 Eh    ::
         :: repulsion energy           0.274086114973 Eh    ::
         :: add. restraining           0.000000025073 Eh    ::
         :: total charge               0.000000000000 e     ::
         :::::::::::::::::::::::::::::::::::::::::::::::::::::

      ----------------------------------------------------------- 
     |                   =====================                   |
     |                        A N C O P T                        |
     |                   =====================                   |
     |               Approximate Normal Coordinate               |
     |                Rational Function Optimizer                |
      ----------------------------------------------------------- 

          ...................................................
          :                      SETUP                      :
          :.................................................:
          :   optimization level            normal          :
          :   max. optcycles                   200          :
          :   ANC micro-cycles                  20          :
          :   degrees of freedom                42          :
          :.................................................:
          :   RF solver                   davidson          :
          :   write xtbopt.log                true          :
          :   linear?                        false          :
          :   energy convergence         0.5000000E-05 Eh   :
          :   grad. convergence          0.1000000E-02 Eh/α :
          :   maxmium RF displ.          1.0000000          :
          :   Hlow (freq-cutoff)         0.1000000E-01      :
          :   Hmax (freq-cutoff)         5.0000000          :
          :   S6 in model hess.         20.0000000          :
          ...................................................

generating ANC from model Hessian ...
Using Lindh-Hessian (1995)
 Shifting diagonal of input Hessian by    1.3522161274958176E-003
 Lowest  eigenvalues of input Hessian
    0.000000    0.000000    0.000000    0.000000    0.000000    0.000000
    0.010000    0.011273    0.018581    0.020219    0.033933    0.035030
    0.050195    0.052505    0.053137    0.057495    0.058011    0.060382
 Highest eigenvalues
    1.164879    1.213079    1.429928    1.835352    9.131597    9.146083


........................................................................
.............................. CYCLE    1 ..............................
........................................................................

 iter      E             dE          RMSdq      gap      omega  full diag
   1    -18.2039845 -0.182040E+02  0.544E-06    5.05       0.0  T
   2    -18.2039845  0.355271E-14  0.328E-06    5.05    7630.5  T
   3    -18.2039845 -0.248690E-13  0.792E-07    5.05   31583.4  T
     SCC iter.                  ...        0 min,  0.001 sec
     gradient                   ...        0 min,  0.003 sec
 * total energy  :   -17.9298773 Eh     change       -0.1064393E-10 Eh
   gradient norm :     0.0348404 Eh/α   predicted     0.0000000E+00 (-100.00%)
   displ. norm   :     0.1373355 α      lambda       -0.2302175E-02
   maximum displ.:     0.0699793 α      in ANC's #16, #2, #4, ...

........................................................................
.............................. CYCLE    2 ..............................
........................................................................

 iter      E             dE          RMSdq      gap      omega  full diag
   1    -18.2205794 -0.182206E+02  0.138E-01    5.21       0.0  T
   2    -18.2205942 -0.148631E-04  0.775E-02    5.21       1.0  T
   3    -18.2205944 -0.168765E-06  0.173E-02    5.21       1.4  T
   4    -18.2205948 -0.414265E-06  0.221E-03    5.21      11.3  T
   5    -18.2205948 -0.665151E-08  0.118E-03    5.21      21.2  T
   6    -18.2205948  0.924928E-09  0.544E-04    5.21      46.0  T
   7    -18.2205948 -0.256572E-08  0.178E-04    5.21     140.1  T
     SCC iter.                  ...        0 min,  0.002 sec
     gradient                   ...        0 min,  0.004 sec
 * total energy  :   -17.9312614 Eh     change       -0.1384116E-02 Eh
   gradient norm :     0.0114707 Eh/α   predicted    -0.1172799E-02 ( -15.27%)
   displ. norm   :     0.0645237 α      lambda       -0.2668288E-03
   maximum displ.:     0.0386507 α      in ANC's #2, #4, #16, ...

........................................................................
.............................. CYCLE    3 ..............................
........................................................................

 iter      E             dE          RMSdq      gap      omega  full diag
   1    -18.2257432 -0.182257E+02  0.500E-02    5.24       0.0  T
   2    -18.2257462 -0.295957E-05  0.280E-02    5.24       1.0  T
   3    -18.2257462 -0.460590E-07  0.756E-03    5.24       3.3  T
   4    -18.2257463 -0.511024E-07  0.852E-04    5.24      29.3  T
   5    -18.2257463 -0.136594E-08  0.440E-04    5.24      56.9  T
     SCC iter.                  ...        0 min,  0.002 sec
     gradient                   ...        0 min,  0.003 sec
 * total energy  :   -17.9314045 Eh     change       -0.1431217E-03 Eh
   gradient norm :     0.0061158 Eh/α   predicted    -0.1339707E-03 (  -6.39%)
   displ. norm   :     0.0451095 α      lambda       -0.4321488E-04
   maximum displ.:     0.0315661 α      in ANC's #4, #2, #16, ...

........................................................................
.............................. CYCLE    4 ..............................
........................................................................

 iter      E             dE          RMSdq      gap      omega  full diag
   1    -18.2257311 -0.182257E+02  0.181E-02    5.24       0.0  T
   2    -18.2257313 -0.128293E-06  0.107E-02    5.24       2.3  T
   3    -18.2257313 -0.238655E-08  0.135E-03    5.24      18.5  T
   4    -18.2257313 -0.564802E-08  0.389E-04    5.24      64.2  T
   5    -18.2257313 -0.387740E-09  0.246E-04    5.24     101.8  T
     SCC iter.                  ...        0 min,  0.002 sec
     gradient                   ...        0 min,  0.003 sec
 * total energy  :   -17.9314290 Eh     change       -0.2446219E-04 Eh
   gradient norm :     0.0050946 Eh/α   predicted    -0.2165025E-04 ( -11.50%)
   displ. norm   :     0.0320545 α      lambda       -0.1496277E-04
   maximum displ.:     0.0225862 α      in ANC's #2, #4, #5, ...

........................................................................
.............................. CYCLE    5 ..............................
........................................................................

 iter      E             dE          RMSdq      gap      omega  full diag
   1    -18.2250282 -0.182250E+02  0.115E-02    5.23       0.0  T
   2    -18.2250282 -0.180578E-07  0.683E-03    5.23       3.7  T
   3    -18.2250282 -0.293696E-08  0.478E-04    5.23      52.3  T
   4    -18.2250282 -0.344297E-09  0.239E-04    5.23     104.7  T
     SCC iter.                  ...        0 min,  0.002 sec
     gradient                   ...        0 min,  0.003 sec
 * total energy  :   -17.9314372 Eh     change       -0.8225004E-05 Eh
   gradient norm :     0.0009338 Eh/α   predicted    -0.7488176E-05 (  -8.96%)
   displ. norm   :     0.0131512 α      lambda       -0.1734850E-05
   maximum displ.:     0.0094265 α      in ANC's #2, #4, #20, ...

........................................................................
.............................. CYCLE    6 ..............................
........................................................................

 iter      E             dE          RMSdq      gap      omega  full diag
   1    -18.2248044 -0.182248E+02  0.717E-03    5.23       0.0  T
   2    -18.2248044 -0.132329E-07  0.419E-03    5.23       6.0  T
   3    -18.2248044  0.156445E-08  0.557E-04    5.23      44.9  T
   4    -18.2248044 -0.140160E-08  0.310E-04    5.23      80.7  T
     SCC iter.                  ...        0 min,  0.001 sec
     gradient                   ...        0 min,  0.003 sec
 * total energy  :   -17.9314383 Eh     change       -0.1082353E-05 Eh
   gradient norm :     0.0004742 Eh/α   predicted    -0.8655089E-06 ( -20.03%)
   displ. norm   :     0.0025412 α      lambda       -0.3253543E-06
   maximum displ.:     0.0014752 α      in ANC's #4, #20, #5, ...

   *** GEOMETRY OPTIMIZATION CONVERGED AFTER 6 ITERATIONS ***

------------------------------------------------------------------------
 total energy gain   :        -0.0015610 Eh       -0.9795 kcal/mol
 total RMSD          :         0.0647009 a0        0.0342 Å
 total power (kW/mol):        -0.6830707 (step)  -93.0778 (real)
------------------------------------------------------------------------

 ANCopt (total)                0 d,  0 h,  0 min,  0.044 sec
 optimizer setup                ...        0 min,  0.000 sec (  0.245%)
 model hessian                  ...        0 min,  0.007 sec ( 15.113%)
 ANC generation                 ...        0 min,  0.001 sec (  1.168%)
 coordinate transformation      ...        0 min,  0.000 sec (  0.065%)
 single point calculation       ...        0 min,  0.035 sec ( 79.561%)
 optimization log               ...        0 min,  0.001 sec (  1.522%)
 hessian update                 ...        0 min,  0.000 sec (  0.094%)
 rational function              ...        0 min,  0.001 sec (  1.385%)

================
 final structure:
================
16
 xtb: 6.6.1 (8d0f1dd)
C           -0.88428601703013       -1.24681358681101       -0.17791728306277
C            0.41839911735045       -1.45802741824213       -0.25925231692669
C            1.44279704385045       -0.37409268227802       -0.11576799064713
C            0.81189960795771        1.00802516009317       -0.25618518852102
C           -0.45083887652467        1.08795431078874        0.59504263114961
C           -1.48989938363931        0.10072778752824        0.07157735928675
H           -1.58190560414048       -2.06420204025517       -0.30281564305752
H            0.80355232306248       -2.45487769227098       -0.42760952632332
H            2.22690364033422       -0.51057744629718       -0.86544068308984
H            1.91982678549934       -0.46715268305666        0.86632084641237
H            0.54967388864493        1.18250193697190       -1.30203271215229
H            1.52520981240875        1.77783455188091        0.04564302010364
H           -0.85696870603830        2.10155297828662        0.58149040799597
H           -0.20161481434307        0.83814919090462        1.62871415180092
H           -2.31402767055372        0.00499094050721        0.78368541387376
H           -1.91862114683865        0.47389669224976       -0.86525248684245

 Bond Distances (Angstroems)
 ---------------------------
C1-C2=1.3222         C1-C6=1.4983         C1-H7=1.0818         C2-C1=1.3222         C2-C3=1.4983         C2-H8=1.0818         
C3-C2=1.4983         C3-C4=1.5258         C3-H9=1.0934         C3-H10=1.0958        C4-C3=1.5258         C4-C5=1.5250         
C4-H11=1.0922        C4-H12=1.0920        C5-C4=1.5250         C5-C6=1.5259         C5-H13=1.0920        C5-H14=1.0922        
C6-C1=1.4983         C6-C5=1.5259         C6-H15=1.0934        C6-H16=1.0958        H7-C1=1.0818         H8-C2=1.0818         
H9-C3=1.0934         H10-C3=1.0958        H11-C4=1.0922        H12-C4=1.0920        H13-C5=1.0920        H14-C5=1.0922        
H15-C6=1.0934        H16-C6=1.0958        
 C  H  Rav=1.0911 sigma=0.0048  Rmin=1.0818  Rmax=1.0958    10
 C  C  Rav=1.4826 sigma=0.0727  Rmin=1.3222  Rmax=1.5259     6

 selected bond angles (degree)
 --------------------
C6-C1-C2=123.51                H7-C1-C2=120.50                H7-C1-C6=115.98                C3-C2-C1=123.52                
H8-C2-C1=120.50                H8-C2-C3=115.98                C4-C3-C2=111.33                H9-C3-C2=109.53                
H9-C3-C4=110.27                H10-C3-C2=108.79               H10-C3-C4=109.84               H10-C3-H9=106.96               
C5-C4-C3=109.79                H11-C4-C3=109.40               H11-C4-C5=109.11               H12-C4-C3=110.06               
H12-C4-C5=110.47               H12-C4-H11=107.99              C6-C5-C4=109.78                H13-C5-C4=110.47               
H13-C5-C6=110.06               H14-C5-C4=109.11               H14-C5-C6=109.39               H14-C5-H13=107.99              
C5-C6-C1=111.33                H15-C6-C1=109.53               H15-C6-C5=110.27               H16-C6-C1=108.79               
H16-C6-C5=109.84               H16-C6-H15=106.96              

 selected dihedral angles (degree)
 ---------------------------------
C3-C2-C1-C6=359.80            C3-C2-C1-H7=179.15            H8-C2-C1-C6=179.15            H8-C2-C1-H7=358.50            
C4-C3-C2-C1=344.21            C4-C3-C2-H8=164.84            H9-C3-C2-C1=221.99            H9-C3-C2-H8= 42.61            
H10-C3-C2-C1=105.39           H10-C3-C2-H8=286.02           C5-C4-C3-C2= 46.99            C5-C4-C3-H9=168.78            
C5-C4-C3-H10=286.42           H11-C4-C3-C2=287.29           H11-C4-C3-H9= 49.09           H11-C4-C3-H10=166.73          
H12-C4-C3-C2=168.79           H12-C4-C3-H9=290.58           H12-C4-C3-H10= 48.22          C6-C5-C4-C3=295.95            
C6-C5-C4-H11= 55.83           C6-C5-C4-H12=174.39           H13-C5-C4-C3=174.40           H13-C5-C4-H11=294.27          
H13-C5-C4-H12= 52.84          H14-C5-C4-C3= 55.83           H14-C5-C4-H11=175.70          H14-C5-C4-H12=294.27          
C5-C6-C1-C2=344.21            C5-C6-C1-H7=164.84            H15-C6-C1-C2=221.98           H15-C6-C1-H7= 42.61           
H16-C6-C1-C2=105.39           H16-C6-C1-H7=286.02           C1-C6-C5-C4= 46.99            C1-C6-C5-H13=168.79           
C1-C6-C5-H14=287.29           H15-C6-C5-C4=168.79           H15-C6-C5-H13=290.59          H15-C6-C5-H14= 49.09          
H16-C6-C5-C4=286.43           H16-C6-C5-H13= 48.23          H16-C6-C5-H14=166.73          
           -------------------------------------------------
          |                Final Singlepoint                |
           -------------------------------------------------

          ...................................................
          :                      SETUP                      :
          :.................................................:
          :  # basis functions                  34          :
          :  # atomic orbitals                  34          :
          :  # shells                           22          :
          :  # electrons                        34          :
          :  max. iterations                   250          :
          :  Hamiltonian                  GFN2-xTB          :
          :  restarted?                      false          :
          :  GBSA solvation                  false          :
          :  PC potential                    false          :
          :  electronic temp.          300.0000000     K    :
          :  accuracy                    1.0000000          :
          :  -> integral cutoff          0.2500000E+02      :
          :  -> integral neglect         0.1000000E-07      :
          :  -> SCF convergence          0.1000000E-05 Eh   :
          :  -> wf. convergence          0.1000000E-03 e    :
          :  Broyden damping             0.4000000          :
          ...................................................

 iter      E             dE          RMSdq      gap      omega  full diag
   1    -18.2248044 -0.182248E+02  0.623E-05    5.23       0.0  T
   2    -18.2248044 -0.217781E-11  0.363E-05    5.23     689.3  T
   3    -18.2248044  0.311218E-11  0.260E-05    5.23     963.4  T

   *** convergence criteria satisfied after 3 iterations ***

         #    Occupation            Energy/Eh            Energy/eV
      -------------------------------------------------------------
         1        2.0000           -0.6302455             -17.1499
       ...           ...                  ...                  ...
        11        2.0000           -0.4659527             -12.6792
        12        2.0000           -0.4637872             -12.6203
        13        2.0000           -0.4593212             -12.4988
        14        2.0000           -0.4267738             -11.6131
        15        2.0000           -0.4166065             -11.3364
        16        2.0000           -0.4073636             -11.0849
        17        2.0000           -0.3807086             -10.3596 (HOMO)
        18                         -0.1883486              -5.1252 (LUMO)
        19                          0.0981227               2.6701
        20                          0.1028707               2.7993
        21                          0.1096754               2.9844
        22                          0.1232863               3.3548
       ...                                ...                  ...
        34                          0.6419172              17.4675
      -------------------------------------------------------------
                  HL-Gap            0.1923600 Eh            5.2344 eV
             Fermi-level           -0.2845286 Eh           -7.7424 eV

 SCC (total)                   0 d,  0 h,  0 min,  0.005 sec
 SCC setup                      ...        0 min,  0.000 sec (  1.933%)
 Dispersion                     ...        0 min,  0.000 sec (  0.858%)
 classical contributions        ...        0 min,  0.000 sec (  0.400%)
 integral evaluation            ...        0 min,  0.001 sec ( 21.508%)
 iterations                     ...        0 min,  0.001 sec ( 18.444%)
 molecular gradient             ...        0 min,  0.003 sec ( 53.953%)
 printout                       ...        0 min,  0.000 sec (  2.653%)

         :::::::::::::::::::::::::::::::::::::::::::::::::::::
         ::                     SUMMARY                     ::
         :::::::::::::::::::::::::::::::::::::::::::::::::::::
         :: total energy             -17.931438272364 Eh    ::
         :: gradient norm              0.000474162488 Eh/a0 ::
         :: HOMO-LUMO gap              5.234382078451 eV    ::
         ::.................................................::
         :: SCC energy               -18.224804389676 Eh    ::
         :: -> isotropic ES            0.002326386900 Eh    ::
         :: -> anisotropic ES          0.004503805164 Eh    ::
         :: -> anisotropic XC          0.011488826022 Eh    ::
         :: -> dispersion             -0.010085144459 Eh    ::
         :: repulsion energy           0.293345912817 Eh    ::
         :: add. restraining           0.000000078534 Eh    ::
         :: total charge              -0.000000000000 e     ::
         :::::::::::::::::::::::::::::::::::::::::::::::::::::

           -------------------------------------------------
          |                Property Printout                |
           -------------------------------------------------

    * Orbital Energies and Occupations

         #    Occupation            Energy/Eh            Energy/eV
      -------------------------------------------------------------
         1        2.0000           -0.6302455             -17.1499
       ...           ...                  ...                  ...
         5        2.0000           -0.5639194             -15.3450
         6        2.0000           -0.5292214             -14.4008
         7        2.0000           -0.5214553             -14.1895
         8        2.0000           -0.4939290             -13.4405
         9        2.0000           -0.4910419             -13.3619
        10        2.0000           -0.4720573             -12.8453
        11        2.0000           -0.4659527             -12.6792
        12        2.0000           -0.4637872             -12.6203
        13        2.0000           -0.4593212             -12.4988
        14        2.0000           -0.4267738             -11.6131
        15        2.0000           -0.4166065             -11.3364
        16        2.0000           -0.4073636             -11.0849
        17        2.0000           -0.3807086             -10.3596 (HOMO)
        18                         -0.1883486              -5.1252 (LUMO)
        19                          0.0981227               2.6701
        20                          0.1028707               2.7993
        21                          0.1096754               2.9844
        22                          0.1232863               3.3548
        23                          0.1259225               3.4265
        24                          0.1467475               3.9932
        25                          0.1567684               4.2659
        26                          0.1926815               5.2431
        27                          0.1968628               5.3569
        28                          0.2366187               6.4387
       ...                                ...                  ...
        34                          0.6419172              17.4675
      -------------------------------------------------------------
                  HL-Gap            0.1923600 Eh            5.2344 eV
             Fermi-level           -0.2845286 Eh           -7.7424 eV

     #   Z          covCN         q      C6AA      α(0)
     1   6 C        2.892    -0.041    29.020     8.832
     2   6 C        2.892    -0.041    29.020     8.832
     3   6 C        3.809    -0.053    21.517     6.603
     4   6 C        3.807    -0.054    21.535     6.606
     5   6 C        3.807    -0.054    21.535     6.606
     6   6 C        3.809    -0.053    21.517     6.603
     7   1 H        0.925     0.021     2.723     2.581
     8   1 H        0.925     0.021     2.723     2.581
     9   1 H        0.924     0.033     2.548     2.496
    10   1 H        0.924     0.037     2.490     2.468
    11   1 H        0.924     0.032     2.552     2.498
    12   1 H        0.924     0.025     2.658     2.549
    13   1 H        0.924     0.025     2.658     2.549
    14   1 H        0.924     0.032     2.552     2.498
    15   1 H        0.924     0.033     2.548     2.496
    16   1 H        0.924     0.037     2.490     2.468

 Mol. C6AA /au·bohr⁶  :       2058.090917
 Mol. C8AA /au·bohr⁸  :      45542.458006
 Mol. α(0) /au        :         69.266947


Wiberg/Mayer (AO) data.
largest (>0.10) Wiberg bond orders for each atom

 ---------------------------------------------------------------------------
     #   Z sym  total        # sym  WBO       # sym  WBO       # sym  WBO
 ---------------------------------------------------------------------------
     1   6 C    3.991 --     2 C    1.929     6 C    1.024     7 H    0.968
     2   6 C    3.991 --     1 C    1.929     3 C    1.024     8 H    0.968
     3   6 C    3.999 --     2 C    1.024     4 C    1.007     9 H    0.968
                            10 H    0.959
     4   6 C    3.999 --     5 C    1.009     3 C    1.007    12 H    0.979
                            11 H    0.979
     5   6 C    3.999 --     4 C    1.009     6 C    1.007    13 H    0.979
                            14 H    0.979
     6   6 C    3.999 --     1 C    1.024     5 C    1.007    15 H    0.968
                            16 H    0.959
     7   1 H    1.000 --     1 C    0.968
     8   1 H    1.000 --     2 C    0.968
     9   1 H    0.999 --     3 C    0.968
    10   1 H    0.999 --     3 C    0.959
    11   1 H    0.999 --     4 C    0.979
    12   1 H    0.999 --     4 C    0.979
    13   1 H    0.999 --     5 C    0.979
    14   1 H    0.999 --     5 C    0.979
    15   1 H    0.999 --     6 C    0.968
    16   1 H    0.999 --     6 C    0.959
 ---------------------------------------------------------------------------

Topologies differ in total number of bonds
Writing topology from bond orders to xtbtopo.mol

molecular dipole:
                 x           y           z       tot (Debye)
 q only:        0.022       0.125       0.020
   full:        0.022       0.127       0.020       0.331
molecular quadrupole (traceless):
                xx          xy          yy          xz          yz          zz
 q only:        0.808      -0.217      -0.430      -0.018      -0.012      -0.378
  q+dip:        1.506      -0.425      -0.727       0.167      -0.033      -0.779
   full:        1.053      -0.320      -0.641       0.108      -0.066      -0.412

           -------------------------------------------------
          |                Geometry Summary                 |
           -------------------------------------------------

      molecular mass/u    :       82.1438229
   center of mass at/Å    :       -0.0203489      -0.1181716      -0.0190852
  moments of inertia/u·Å² :        0.1050913E+03   0.1096414E+03   0.1939258E+03
rotational constants/cm⁻¹ :        0.1604094E+00   0.1537525E+00   0.8692828E-01

 * 14 selected distances

     #   Z          #   Z                                           value/Å
     1   6 C        2   6 C                                       1.3222010
     3   6 C        4   6 C                                       1.5257781
     4   6 C        5   6 C                                       1.5249546
     5   6 C        6   6 C                                       1.5258700 (max)
     1   6 C        7   1 H                                       1.0818488 (min)
     2   6 C        8   1 H                                       1.0818493
     3   6 C        9   1 H                                       1.0933712
     3   6 C       10   1 H                                       1.0957720
     4   6 C       11   1 H                                       1.0922462
     4   6 C       12   1 H                                       1.0920249
     5   6 C       13   1 H                                       1.0920200
     5   6 C       14   1 H                                       1.0922419
     6   6 C       15   1 H                                       1.0933669
     6   6 C       16   1 H                                       1.0957681

 * 2 distinct bonds (by element types)

   Z      Z             #   av. dist./Å        max./Å        min./Å
   1 H    6 C          10     1.0910509     1.0957720     1.0818488
   6 C    6 C           4     1.4747009     1.5258700     1.3222010


optimized geometry written to: xtbopt.xyz


           -------------------------------------------------
          | TOTAL ENERGY              -17.931438272364 Eh   |
          | GRADIENT NORM               0.000474162488 Eh/α |
          | HOMO-LUMO GAP               5.234382078451 eV   |
           -------------------------------------------------

------------------------------------------------------------------------
 * finished run on 2025/05/23 at 11:18:27.621     
------------------------------------------------------------------------
 total:
 * wall-time:     0 d,  0 h,  0 min,  0.068 sec
 *  cpu-time:     0 d,  0 h,  0 min,  0.068 sec
 * ratio c/w:     1.000 speedup
 SCF:
 * wall-time:     0 d,  0 h,  0 min,  0.008 sec
 *  cpu-time:     0 d,  0 h,  0 min,  0.008 sec
 * ratio c/w:     1.000 speedup
 ANC optimizer:
 * wall-time:     0 d,  0 h,  0 min,  0.050 sec
 *  cpu-time:     0 d,  0 h,  0 min,  0.050 sec
 * ratio c/w:     1.000 speedup

