      -----------------------------------------------------------      
     |                   =====================                   |     
     |                           x T B                           |     
     |                   =====================                   |     
     |                         S. Grimme                         |     
     |          Mulliken Center for Theoretical Chemistry        |     
     |                    University of Bonn                     |     
      -----------------------------------------------------------      

   * xtb version 6.6.1 (8d0f1dd) compiled by 'conda@1efc2f54142f' on 2023-08-01

   xtb is free software: you can redistribute it and/or modify it under
   the terms of the GNU Lesser General Public License as published by
   the Free Software Foundation, either version 3 of the License, or
   (at your option) any later version.
   
   xtb is distributed in the hope that it will be useful,
   but WITHOUT ANY WARRANTY; without even the implied warranty of
   MERCHANTABILITY or FITNESS FOR A PARTICULAR PURPOSE.  See the
   GNU Lesser General Public License for more details.
   
   Cite this work as:
   * C. Bannwarth, E. Caldeweyher, S. Ehlert, A. Hansen, P. Pracht,
     J. Seibert, S. Spicher, S. Grimme, WIREs Comput. Mol. Sci., 2020, 11,
     e01493. DOI: 10.1002/wcms.1493
   
   for GFN2-xTB:
   * C. Bannwarth, S. Ehlert and S. Grimme., J. Chem. Theory Comput., 2019,
     15, 1652-1671. DOI: 10.1021/acs.jctc.8b01176
   for GFN1-xTB:
   * S. Grimme, C. Bannwarth, P. Shushkov, J. Chem. Theory Comput., 2017,
     13, 1989-2009. DOI: 10.1021/acs.jctc.7b00118
   for GFN0-xTB:
   * P. Pracht, E. Caldeweyher, S. Ehlert, S. Grimme, ChemRxiv, 2019, preprint.
     DOI: 10.26434/chemrxiv.8326202.v1
   for GFN-FF:
   * S. Spicher and S. Grimme, Angew. Chem. Int. Ed., 2020, 59, 15665-15673.
     DOI: 10.1002/anie.202004239
   
   for ALPB and GBSA implicit solvation:
   * S. Ehlert, M. Stahn, S. Spicher, S. Grimme, J. Chem. Theory Comput.,
     2021, 17, 4250-4261. DOI: 10.1021/acs.jctc.1c00471
   
   for DFT-D4:
   * E. Caldeweyher, C. Bannwarth and S. Grimme, J. Chem. Phys., 2017,
     147, 034112. DOI: 10.1063/1.4993215
   * E. Caldeweyher, S. Ehlert, A. Hansen, H. Neugebauer, S. Spicher,
     C. Bannwarth and S. Grimme, J. Chem. Phys., 2019, 150, 154122.
     DOI: 10.1063/1.5090222
   * E. Caldeweyher, J.-M. Mewes, S. Ehlert and S. Grimme, Phys. Chem. Chem. Phys.
     2020, 22, 8499-8512. DOI: 10.1039/D0CP00502A
   
   for sTDA-xTB:
   * S. Grimme and C. Bannwarth, J. Chem. Phys., 2016, 145, 054103.
     DOI: 10.1063/1.4959605
   
   in the mass-spec context:
   * V. Asgeirsson, C. Bauer and S. Grimme, Chem. Sci., 2017, 8, 4879.
     DOI: 10.1039/c7sc00601b
   * J. Koopman and S. Grimme, ACS Omega 2019, 4, 12, 15120-15133.
     DOI: 10.1021/acsomega.9b02011
   
   for metadynamics refer to:
   * S. Grimme, J. Chem. Theory Comput., 2019, 155, 2847-2862
     DOI: 10.1021/acs.jctc.9b00143
   
   for SPH calculations refer to:
   * S. Spicher and S. Grimme, J. Chem. Theory Comput., 2021, 17, 1701-1714
     DOI: 10.1021/acs.jctc.0c01306
   
   with help from (in alphabetical order)
   P. Atkinson, C. Bannwarth, F. Bohle, G. Brandenburg, E. Caldeweyher
   M. Checinski, S. Dohm, S. Ehlert, S. Ehrlich, I. Gerasimov, C. Hölzer
   A. Katbashev, J. Koopman, C. Lavigne, S. Lehtola, F. März, M. Müller,
   F. Musil, H. Neugebauer, J. Pisarek, C. Plett, P. Pracht, F. Pultar,
   J. Seibert, P. Shushkov, S. Spicher, M. Stahn, M. Steiner, T. Strunk,
   J. Stückrath, T. Rose, and J. Unsleber
   
 * started run on 2025/05/23 at 11:18:29.591     

           -------------------------------------------------
          |                Calculation Setup                |
           -------------------------------------------------

          program call               : /home/avcopan/code/other/saddle-search-practice/.pixi/envs/default/bin/xtb path_opt4_xtb.xyz --chrg 0 --uhf 0 --opt --input xcontrol_path_opt4_xtb
          coordinate file            : path_opt4_xtb.xyz
          omp threads                :                     1

   ID    Z sym.   atoms
    1    6 C      1-6
    2    1 H      7-16
constraining bond 3 4 to    1.8872000 Å, actual value:    1.8372101 Å
constraining bond 5 6 to    1.8873000 Å, actual value:    1.8372303 Å

           -------------------------------------------------
          |                 G F N 2 - x T B                 |
           -------------------------------------------------

        Reference                      10.1021/acs.jctc.8b01176
      * Hamiltonian:
        H0-scaling (s, p, d)           1.850000    2.230000    2.230000
        zeta-weighting                 0.500000
      * Dispersion:
        s8                             2.700000
        a1                             0.520000
        a2                             5.000000
        s9                             5.000000
      * Repulsion:
        kExp                           1.500000    1.000000
        rExp                           1.000000
      * Coulomb:
        alpha                          2.000000
        third order                    shell-resolved
        anisotropic                    true
        a3                             3.000000
        a5                             4.000000
        cn-shift                       1.200000
        cn-exp                         4.000000
        max-rad                        5.000000


          ...................................................
          :                      SETUP                      :
          :.................................................:
          :  # basis functions                  34          :
          :  # atomic orbitals                  34          :
          :  # shells                           22          :
          :  # electrons                        34          :
          :  max. iterations                   250          :
          :  Hamiltonian                  GFN2-xTB          :
          :  restarted?                      false          :
          :  GBSA solvation                  false          :
          :  PC potential                    false          :
          :  electronic temp.          300.0000000     K    :
          :  accuracy                    1.0000000          :
          :  -> integral cutoff          0.2500000E+02      :
          :  -> integral neglect         0.1000000E-07      :
          :  -> SCF convergence          0.1000000E-05 Eh   :
          :  -> wf. convergence          0.1000000E-03 e    :
          :  Broyden damping             0.4000000          :
          ...................................................

 iter      E             dE          RMSdq      gap      omega  full diag
   1    -18.1249964 -0.181250E+02  0.326E+00    5.19       0.0  T
   2    -18.1530134 -0.280170E-01  0.184E+00    5.12       1.0  T
   3    -18.1532731 -0.259673E-03  0.677E-01    5.08       1.0  T
   4    -18.1531594  0.113674E-03  0.240E-01    5.08       1.0  T
   5    -18.1539610 -0.801590E-03  0.558E-02    5.08       1.0  T
   6    -18.1539628 -0.175561E-05  0.163E-02    5.08       1.5  T
   7    -18.1539629 -0.162900E-06  0.216E-03    5.08      11.6  T
   8    -18.1539629 -0.399509E-08  0.395E-04    5.08      63.2  T
   9    -18.1539629 -0.290797E-09  0.177E-04    5.08     141.6  T

   *** convergence criteria satisfied after 9 iterations ***

         #    Occupation            Energy/Eh            Energy/eV
      -------------------------------------------------------------
         1        2.0000           -0.6163270             -16.7711
       ...           ...                  ...                  ...
        11        2.0000           -0.4684606             -12.7475
        12        2.0000           -0.4630854             -12.6012
        13        2.0000           -0.4431072             -12.0576
        14        2.0000           -0.4385775             -11.9343
        15        2.0000           -0.4062653             -11.0550
        16        2.0000           -0.3938187             -10.7164
        17        2.0000           -0.3784160             -10.2972 (HOMO)
        18                         -0.1918091              -5.2194 (LUMO)
        19                         -0.1262526              -3.4355
        20                         -0.1030246              -2.8034
        21                          0.1167970               3.1782
        22                          0.1332114               3.6249
       ...                                ...                  ...
        34                          0.6440659              17.5259
      -------------------------------------------------------------
                  HL-Gap            0.1866069 Eh            5.0778 eV
             Fermi-level           -0.2851125 Eh           -7.7583 eV

 SCC (total)                   0 d,  0 h,  0 min,  0.008 sec
 SCC setup                      ...        0 min,  0.000 sec (  2.053%)
 Dispersion                     ...        0 min,  0.000 sec (  1.096%)
 classical contributions        ...        0 min,  0.000 sec (  0.399%)
 integral evaluation            ...        0 min,  0.001 sec ( 14.028%)
 iterations                     ...        0 min,  0.003 sec ( 42.013%)
 molecular gradient             ...        0 min,  0.003 sec ( 36.608%)
 printout                       ...        0 min,  0.000 sec (  3.625%)

         :::::::::::::::::::::::::::::::::::::::::::::::::::::
         ::                     SUMMARY                     ::
         :::::::::::::::::::::::::::::::::::::::::::::::::::::
         :: total energy             -17.834630344309 Eh    ::
         :: gradient norm              0.593426647125 Eh/a0 ::
         :: HOMO-LUMO gap              5.077831578962 eV    ::
         ::.................................................::
         :: SCC energy               -18.153962933758 Eh    ::
         :: -> isotropic ES            0.002526362867 Eh    ::
         :: -> anisotropic ES          0.006529073251 Eh    ::
         :: -> anisotropic XC          0.012785523359 Eh    ::
         :: -> dispersion             -0.009847719915 Eh    ::
         :: repulsion energy           0.283554277439 Eh    ::
         :: add. restraining           0.035753232126 Eh    ::
         :: total charge               0.000000000000 e     ::
         :::::::::::::::::::::::::::::::::::::::::::::::::::::

      ----------------------------------------------------------- 
     |                   =====================                   |
     |                        A N C O P T                        |
     |                   =====================                   |
     |               Approximate Normal Coordinate               |
     |                Rational Function Optimizer                |
      ----------------------------------------------------------- 

          ...................................................
          :                      SETUP                      :
          :.................................................:
          :   optimization level            normal          :
          :   max. optcycles                   200          :
          :   ANC micro-cycles                  20          :
          :   degrees of freedom                42          :
          :.................................................:
          :   RF solver                   davidson          :
          :   write xtbopt.log                true          :
          :   linear?                        false          :
          :   energy convergence         0.5000000E-05 Eh   :
          :   grad. convergence          0.1000000E-02 Eh/α :
          :   maxmium RF displ.          1.0000000          :
          :   Hlow (freq-cutoff)         0.1000000E-01      :
          :   Hmax (freq-cutoff)         5.0000000          :
          :   S6 in model hess.         20.0000000          :
          ...................................................

generating ANC from model Hessian ...
Using Lindh-Hessian (1995)
 Shifting diagonal of input Hessian by    6.5771145215877999E-002
 Lowest  eigenvalues of input Hessian
    0.010000    0.023025    0.036966    0.062413    0.000000    0.000000
    0.000000    0.000000    0.000000    0.000000    0.076808    0.079059
    0.081620    0.088885    0.092064    0.095584    0.099580    0.101146
 Highest eigenvalues
    1.226503    1.285976    1.542439    1.992050    8.592875    8.604385


........................................................................
.............................. CYCLE    1 ..............................
........................................................................

 iter      E             dE          RMSdq      gap      omega  full diag
   1    -18.1539629 -0.181540E+02  0.103E-04    5.08       0.0  T
   2    -18.1539629 -0.446576E-11  0.753E-05    5.08     332.0  T
   3    -18.1539629 -0.442419E-10  0.396E-05    5.08     630.8  T
     SCC iter.                  ...        0 min,  0.001 sec
     gradient                   ...        0 min,  0.003 sec
 * total energy  :   -17.8346303 Eh     change       -0.1694360E-09 Eh
   gradient norm :     0.5934266 Eh/α   predicted     0.0000000E+00 (-100.00%)
   displ. norm   :     0.1262366 α      lambda       -0.7008956E-01
   maximum displ.:     0.1169924 α      in ANC's #41, #27, #11, ...

........................................................................
.............................. CYCLE    2 ..............................
........................................................................

 iter      E             dE          RMSdq      gap      omega  full diag
   1    -18.1409212 -0.181409E+02  0.119E-01    4.94       0.0  T
   2    -18.1409341 -0.128338E-04  0.713E-02    4.93       1.0  T
   3    -18.1409342 -0.970485E-07  0.135E-02    4.93       1.8  T
   4    -18.1409344 -0.177385E-06  0.174E-03    4.93      14.4  T
   5    -18.1409344 -0.186600E-08  0.113E-03    4.93      22.2  T
   6    -18.1409344 -0.891831E-08  0.515E-04    4.93      48.5  T
   7    -18.1409344 -0.533365E-09  0.152E-04    4.93     164.2  T
     SCC iter.                  ...        0 min,  0.003 sec
     gradient                   ...        0 min,  0.003 sec
 * total energy  :   -17.8481944 Eh     change       -0.1356408E-01 Eh
   gradient norm :     0.3652272 Eh/α   predicted    -0.3560325E-01 ( 162.48%)
   displ. norm   :     0.0460377 α      lambda       -0.1631654E-01
   maximum displ.:     0.0445666 α      in ANC's #41, #9, #2, ...

........................................................................
.............................. CYCLE    3 ..............................
........................................................................

 iter      E             dE          RMSdq      gap      omega  full diag
   1    -18.1437673 -0.181438E+02  0.642E-02    5.00       0.0  T
   2    -18.1437708 -0.347944E-05  0.372E-02    5.00       1.0  T
   3    -18.1437708 -0.945819E-08  0.755E-03    5.00       3.3  T
   4    -18.1437708 -0.478581E-07  0.664E-04    5.00      37.6  T
   5    -18.1437708 -0.224713E-08  0.403E-04    5.00      62.0  T
     SCC iter.                  ...        0 min,  0.001 sec
     gradient                   ...        0 min,  0.003 sec
 * total energy  :   -17.8564131 Eh     change       -0.8218643E-02 Eh
   gradient norm :     0.0031715 Eh/α   predicted    -0.8175561E-02 (  -0.52%)
   displ. norm   :     0.0164631 α      lambda       -0.2988132E-04
   maximum displ.:     0.0070741 α      in ANC's #2, #11, #9, ...

........................................................................
.............................. CYCLE    4 ..............................
........................................................................

 iter      E             dE          RMSdq      gap      omega  full diag
   1    -18.1429792 -0.181430E+02  0.171E-02    5.00       0.0  T
   2    -18.1429793 -0.527557E-07  0.987E-03    5.00       2.5  T
   3    -18.1429792  0.256428E-07  0.164E-03    5.00      15.2  T
   4    -18.1429793 -0.305640E-07  0.500E-04    5.00      50.0  T
   5    -18.1429793 -0.303087E-08  0.133E-04    5.00     187.7  T
     SCC iter.                  ...        0 min,  0.001 sec
     gradient                   ...        0 min,  0.003 sec
 * total energy  :   -17.8564351 Eh     change       -0.2204605E-04 Eh
   gradient norm :     0.0013083 Eh/α   predicted    -0.1494468E-04 ( -32.21%)
   displ. norm   :     0.0297067 α      lambda       -0.2040354E-04
   maximum displ.:     0.0187691 α      in ANC's #9, #11, #17, ...

........................................................................
.............................. CYCLE    5 ..............................
........................................................................

 iter      E             dE          RMSdq      gap      omega  full diag
   1    -18.1415233 -0.181415E+02  0.318E-02    5.01       0.0  T
   2    -18.1415235 -0.233079E-06  0.183E-02    5.01       1.4  T
   3    -18.1415234  0.141101E-06  0.377E-03    5.01       6.6  T
   4    -18.1415236 -0.165239E-06  0.960E-04    5.01      26.0  T
   5    -18.1415236 -0.125563E-07  0.239E-04    5.01     104.7  T
     SCC iter.                  ...        0 min,  0.002 sec
     gradient                   ...        0 min,  0.003 sec
 * total energy  :   -17.8564407 Eh     change       -0.5586721E-05 Eh
   gradient norm :     0.0018549 Eh/α   predicted    -0.1020473E-04 (  82.66%)
   displ. norm   :     0.0295439 α      lambda       -0.1324238E-04
   maximum displ.:     0.0239249 α      in ANC's #2, #1, #4, ...

........................................................................
.............................. CYCLE    6 ..............................
........................................................................

 iter      E             dE          RMSdq      gap      omega  full diag
   1    -18.1419301 -0.181419E+02  0.343E-02    5.01       0.0  T
   2    -18.1419302 -0.516959E-07  0.203E-02    5.01       1.2  T
   3    -18.1419299  0.285897E-06  0.460E-03    5.01       5.4  T
   4    -18.1419302 -0.317024E-06  0.592E-04    5.01      42.2  T
   5    -18.1419302 -0.273766E-08  0.293E-04    5.01      85.5  T
     SCC iter.                  ...        0 min,  0.002 sec
     gradient                   ...        0 min,  0.003 sec
 * total energy  :   -17.8564327 Eh     change        0.8003304E-05 Eh
   gradient norm :     0.0029431 Eh/α   predicted    -0.6623105E-05 (-182.75%)
   displ. norm   :     0.0243346 α      lambda       -0.2668378E-04
   maximum displ.:     0.0226030 α      in ANC's #1, #11, #15, ...

........................................................................
.............................. CYCLE    7 ..............................
........................................................................

 iter      E             dE          RMSdq      gap      omega  full diag
   1    -18.1425573 -0.181426E+02  0.304E-02    5.01       0.0  T
   2    -18.1425574 -0.813291E-07  0.179E-02    5.01       1.4  T
   3    -18.1425572  0.251442E-06  0.436E-03    5.01       5.7  T
   4    -18.1425575 -0.274720E-06  0.758E-04    5.01      33.0  T
   5    -18.1425575 -0.637051E-08  0.237E-04    5.01     105.6  T
     SCC iter.                  ...        0 min,  0.002 sec
     gradient                   ...        0 min,  0.003 sec
 * total energy  :   -17.8564379 Eh     change       -0.5243746E-05 Eh
   gradient norm :     0.0028601 Eh/α   predicted    -0.1334913E-04 ( 154.57%)
   displ. norm   :     0.0333605 α      lambda       -0.4074544E-04
   maximum displ.:     0.0294327 α      in ANC's #2, #1, #11, ...

........................................................................
.............................. CYCLE    8 ..............................
........................................................................

 iter      E             dE          RMSdq      gap      omega  full diag
   1    -18.1427912 -0.181428E+02  0.422E-02    5.01       0.0  T
   2    -18.1427912 -0.446962E-07  0.250E-02    5.01       1.0  T
   3    -18.1427910  0.179458E-06  0.360E-03    5.01       7.0  T
   4    -18.1427912 -0.204615E-06  0.508E-04    5.01      49.2  T
   5    -18.1427912 -0.116195E-08  0.299E-04    5.01      83.5  T
     SCC iter.                  ...        0 min,  0.001 sec
     gradient                   ...        0 min,  0.003 sec
 * total energy  :   -17.8564365 Eh     change        0.1470742E-05 Eh
   gradient norm :     0.0023011 Eh/α   predicted    -0.2039643E-04 (*******%)
   displ. norm   :     0.0222413 α      lambda       -0.2636124E-04
   maximum displ.:     0.0193073 α      in ANC's #2, #11, #9, ...

........................................................................
.............................. CYCLE    9 ..............................
........................................................................

 iter      E             dE          RMSdq      gap      omega  full diag
   1    -18.1423251 -0.181423E+02  0.233E-02    5.01       0.0  T
   2    -18.1423251 -0.282682E-07  0.137E-02    5.01       1.8  T
   3    -18.1423251  0.146399E-07  0.120E-03    5.01      20.8  T
   4    -18.1423251 -0.174359E-07  0.434E-04    5.01      57.6  T
   5    -18.1423251 -0.220150E-08  0.150E-04    5.01     166.6  T
     SCC iter.                  ...        0 min,  0.001 sec
     gradient                   ...        0 min,  0.003 sec
 * total energy  :   -17.8564500 Eh     change       -0.1350971E-04 Eh
   gradient norm :     0.0003577 Eh/α   predicted    -0.1318630E-04 (  -2.39%)
   displ. norm   :     0.0070246 α      lambda       -0.9054093E-06
   maximum displ.:     0.0049851 α      in ANC's #2, #9, #6, ...

........................................................................
.............................. CYCLE   10 ..............................
........................................................................

 iter      E             dE          RMSdq      gap      omega  full diag
   1    -18.1423455 -0.181423E+02  0.213E-03    5.01       0.0  T
   2    -18.1423455 -0.570580E-09  0.127E-03    5.01      19.6  T
   3    -18.1423455  0.183734E-08  0.379E-04    5.01      66.0  T
   4    -18.1423455 -0.215651E-08  0.623E-05    5.01     401.0  T
     SCC iter.                  ...        0 min,  0.002 sec
     gradient                   ...        0 min,  0.006 sec
 * total energy  :   -17.8564512 Eh     change       -0.1211317E-05 Eh
   gradient norm :     0.0003332 Eh/α   predicted    -0.4520552E-06 ( -62.68%)
   displ. norm   :     0.0469289 α      lambda       -0.5488537E-05
   maximum displ.:     0.0308295 α      in ANC's #2, #9, #6, ...

   *** GEOMETRY OPTIMIZATION CONVERGED AFTER 10 ITERATIONS ***

------------------------------------------------------------------------
 total energy gain   :        -0.0218209 Eh      -13.6928 kcal/mol
 total RMSD          :         0.0298066 a0        0.0158 Å
 total power (kW/mol):        -5.7290639 (step) -779.8780 (real)
------------------------------------------------------------------------

 ANCopt (total)                0 d,  0 h,  0 min,  0.073 sec
 optimizer setup                ...        0 min,  0.000 sec (  0.237%)
 model hessian                  ...        0 min,  0.006 sec (  7.668%)
 ANC generation                 ...        0 min,  0.000 sec (  0.434%)
 coordinate transformation      ...        0 min,  0.000 sec (  0.106%)
 single point calculation       ...        0 min,  0.064 sec ( 87.087%)
 optimization log               ...        0 min,  0.001 sec (  1.682%)
 hessian update                 ...        0 min,  0.000 sec (  0.120%)
 rational function              ...        0 min,  0.001 sec (  1.618%)

================
 final structure:
================
16
 xtb: 6.6.1 (8d0f1dd)
C           -0.89624543311788       -1.30673550944550       -0.19382235415584
C            0.40921572639517       -1.52047384059101       -0.26231638342260
C            1.49471656740134       -0.52783738128378       -0.11564628724123
C            0.80905273918897        1.21395952714300       -0.24158038063751
C           -0.38046532039931        1.27517695448829        0.64486776509850
C           -1.58902941288252       -0.01950686330001        0.02570696426518
H           -1.56659987361899       -2.15088599212327       -0.32208702229375
H            0.75982896716120       -2.53370430862951       -0.43219707993471
H            2.23673377654905       -0.59632502797141       -0.90373207698950
H            1.96590601363422       -0.56384947545849        0.86211267903568
H            0.57868592689068        1.35169782376280       -1.29060470536835
H            1.63081773914255        1.84783739447884        0.07563063067061
H           -0.93233825504159        2.20745139644460        0.58144091962999
H           -0.17367252568060        1.00088190926098        1.67171008024209
H           -2.35480227830335       -0.07918417806424        0.79149397938781
H           -1.99172435731893        0.40141757128872       -0.89075672828636

 Bond Distances (Angstroems)
 ---------------------------
C1-C2=1.3246         C1-C6=1.4782         C1-H7=1.0855         C2-C1=1.3246         C2-C3=1.4782         C2-H8=1.0856         
C3-C2=1.4782         C3-C4=1.8761         C3-H9=1.0846         C3-H10=1.0860        C4-C3=1.8761         C4-C5=1.4848         
C4-H11=1.0828        C4-H12=1.0852        C5-C4=1.4848         C5-C6=1.8762         C5-H13=1.0852        C5-H14=1.0828        
C6-C1=1.4782         C6-C5=1.8762         C6-H15=1.0846        C6-H16=1.0859        H7-C1=1.0855         H8-C2=1.0856         
H9-C3=1.0846         H10-C3=1.0860        H11-C4=1.0828        H12-C4=1.0852        H13-C5=1.0852        H14-C5=1.0828        
H15-C6=1.0846        H16-C6=1.0859        
 C  H  Rav=1.0848 sigma=0.0011  Rmin=1.0828  Rmax=1.0860    10
 C  C  Rav=1.5864 sigma=0.2122  Rmin=1.3246  Rmax=1.8762     6

 selected bond angles (degree)
 --------------------
C6-C1-C2=127.60                H7-C1-C2=118.49                H7-C1-C6=113.91                C3-C2-C1=127.61                
H8-C2-C1=118.49                H8-C2-C3=113.90                C4-C3-C2=110.39                H9-C3-C2=112.82                
H9-C3-C4=105.06                H10-C3-C2=112.69               H10-C3-C4=104.47               H10-C3-H9=110.81               
C5-C4-C3=106.92                H11-C4-C3=105.12               H11-C4-C5=113.75               H12-C4-C3=104.24               
H12-C4-C5=114.08               H12-C4-H11=111.71              C6-C5-C4=106.89                H13-C5-C4=114.08               
H13-C5-C6=104.24               H14-C5-C4=113.75               H14-C5-C6=105.14               H14-C5-H13=111.73              
C5-C6-C1=110.37                H15-C6-C1=112.82               H15-C6-C5=105.06               H16-C6-C1=112.71               
H16-C6-C5=104.47               H16-C6-H15=110.82              

 selected dihedral angles (degree)
 ---------------------------------
C3-C2-C1-C6=  1.01            C3-C2-C1-H7=180.15            H8-C2-C1-C6=180.14            H8-C2-C1-H7=359.27            
C4-C3-C2-C1=345.55            C4-C3-C2-H8=166.40            H9-C3-C2-C1=228.35            H9-C3-C2-H8= 49.19            
H10-C3-C2-C1=101.93           H10-C3-C2-H8=282.77           C6-C5-C4-C3=300.72            C6-C5-C4-H11= 56.30           
C6-C5-C4-H12=186.04           H13-C5-C4-C3=186.06           H13-C5-C4-H11=301.64          H13-C5-C4-H12= 71.38          
H14-C5-C4-C3= 56.30           H14-C5-C4-H11=171.88          H14-C5-C4-H12=301.63          C5-C6-C1-C2=345.38            
C5-C6-C1-H7=166.21            H15-C6-C1-C2=228.19           H15-C6-C1-H7= 49.02           H16-C6-C1-C2=101.75           
H16-C6-C1-H7=282.58           
           -------------------------------------------------
          |                Final Singlepoint                |
           -------------------------------------------------

          ...................................................
          :                      SETUP                      :
          :.................................................:
          :  # basis functions                  34          :
          :  # atomic orbitals                  34          :
          :  # shells                           22          :
          :  # electrons                        34          :
          :  max. iterations                   250          :
          :  Hamiltonian                  GFN2-xTB          :
          :  restarted?                      false          :
          :  GBSA solvation                  false          :
          :  PC potential                    false          :
          :  electronic temp.          300.0000000     K    :
          :  accuracy                    1.0000000          :
          :  -> integral cutoff          0.2500000E+02      :
          :  -> integral neglect         0.1000000E-07      :
          :  -> SCF convergence          0.1000000E-05 Eh   :
          :  -> wf. convergence          0.1000000E-03 e    :
          :  Broyden damping             0.4000000          :
          ...................................................

 iter      E             dE          RMSdq      gap      omega  full diag
   1    -18.1423455 -0.181423E+02  0.368E-05    5.01       0.0  T
   2    -18.1423455 -0.984102E-12  0.283E-05    5.01     884.3  T
   3    -18.1423455 -0.865086E-11  0.120E-05    5.01    2076.9  T

   *** convergence criteria satisfied after 3 iterations ***

         #    Occupation            Energy/Eh            Energy/eV
      -------------------------------------------------------------
         1        2.0000           -0.6155448             -16.7498
       ...           ...                  ...                  ...
        11        2.0000           -0.4683294             -12.7439
        12        2.0000           -0.4625647             -12.5870
        13        2.0000           -0.4417776             -12.0214
        14        2.0000           -0.4395522             -11.9608
        15        2.0000           -0.4039642             -10.9924
        16        2.0000           -0.3912707             -10.6470
        17        2.0000           -0.3773318             -10.2677 (HOMO)
        18                         -0.1933038              -5.2601 (LUMO)
        19                         -0.1428960              -3.8884
        20                         -0.1196411              -3.2556
        21                          0.1163793               3.1668
        22                          0.1336017               3.6355
       ...                                ...                  ...
        34                          0.6448775              17.5480
      -------------------------------------------------------------
                  HL-Gap            0.1840281 Eh            5.0077 eV
             Fermi-level           -0.2853178 Eh           -7.7639 eV

 SCC (total)                   0 d,  0 h,  0 min,  0.011 sec
 SCC setup                      ...        0 min,  0.000 sec (  2.344%)
 Dispersion                     ...        0 min,  0.000 sec (  0.913%)
 classical contributions        ...        0 min,  0.000 sec (  0.430%)
 integral evaluation            ...        0 min,  0.002 sec ( 21.480%)
 iterations                     ...        0 min,  0.002 sec ( 18.879%)
 molecular gradient             ...        0 min,  0.006 sec ( 52.882%)
 printout                       ...        0 min,  0.000 sec (  2.771%)

         :::::::::::::::::::::::::::::::::::::::::::::::::::::
         ::                     SUMMARY                     ::
         :::::::::::::::::::::::::::::::::::::::::::::::::::::
         :: total energy             -17.856451196195 Eh    ::
         :: gradient norm              0.000333087986 Eh/a0 ::
         :: HOMO-LUMO gap              5.007658626999 eV    ::
         ::.................................................::
         :: SCC energy               -18.142345533264 Eh    ::
         :: -> isotropic ES            0.002529544489 Eh    ::
         :: -> anisotropic ES          0.006775517311 Eh    ::
         :: -> anisotropic XC          0.012915209721 Eh    ::
         :: -> dispersion             -0.009890148585 Eh    ::
         :: repulsion energy           0.284115552808 Eh    ::
         :: add. restraining           0.001752877735 Eh    ::
         :: total charge               0.000000000000 e     ::
         :::::::::::::::::::::::::::::::::::::::::::::::::::::

           -------------------------------------------------
          |                Property Printout                |
           -------------------------------------------------

    * Orbital Energies and Occupations

         #    Occupation            Energy/Eh            Energy/eV
      -------------------------------------------------------------
         1        2.0000           -0.6155448             -16.7498
       ...           ...                  ...                  ...
         5        2.0000           -0.5518974             -15.0179
         6        2.0000           -0.5202509             -14.1567
         7        2.0000           -0.5093636             -13.8605
         8        2.0000           -0.4918626             -13.3843
         9        2.0000           -0.4766268             -12.9697
        10        2.0000           -0.4712252             -12.8227
        11        2.0000           -0.4683294             -12.7439
        12        2.0000           -0.4625647             -12.5870
        13        2.0000           -0.4417776             -12.0214
        14        2.0000           -0.4395522             -11.9608
        15        2.0000           -0.4039642             -10.9924
        16        2.0000           -0.3912707             -10.6470
        17        2.0000           -0.3773318             -10.2677 (HOMO)
        18                         -0.1933038              -5.2601 (LUMO)
        19                         -0.1428960              -3.8884
        20                         -0.1196411              -3.2556
        21                          0.1163793               3.1668
        22                          0.1336017               3.6355
        23                          0.1567013               4.2641
        24                          0.1697827               4.6200
        25                          0.1912301               5.2036
        26                          0.1983012               5.3961
        27                          0.2216787               6.0322
        28                          0.2353424               6.4040
       ...                                ...                  ...
        34                          0.6448775              17.5480
      -------------------------------------------------------------
                  HL-Gap            0.1840281 Eh            5.0077 eV
             Fermi-level           -0.2853178 Eh           -7.7639 eV

     #   Z          covCN         q      C6AA      α(0)
     1   6 C        2.887    -0.037    28.909     8.815
     2   6 C        2.887    -0.037    28.909     8.815
     3   6 C        3.561    -0.067    22.724     6.949
     4   6 C        3.558    -0.062    22.648     6.943
     5   6 C        3.558    -0.062    22.650     6.943
     6   6 C        3.561    -0.067    22.725     6.950
     7   1 H        0.925     0.024     2.668     2.555
     8   1 H        0.925     0.024     2.668     2.555
     9   1 H        0.925     0.036     2.507     2.476
    10   1 H        0.925     0.040     2.449     2.447
    11   1 H        0.925     0.036     2.509     2.477
    12   1 H        0.925     0.030     2.590     2.517
    13   1 H        0.925     0.030     2.590     2.517
    14   1 H        0.925     0.036     2.509     2.477
    15   1 H        0.925     0.036     2.508     2.477
    16   1 H        0.925     0.040     2.449     2.447

 Mol. C6AA /au·bohr⁶  :       2088.645678
 Mol. C8AA /au·bohr⁸  :      46438.459619
 Mol. α(0) /au        :         70.358638


Wiberg/Mayer (AO) data.
largest (>0.10) Wiberg bond orders for each atom

 ---------------------------------------------------------------------------
     #   Z sym  total        # sym  WBO       # sym  WBO       # sym  WBO
 ---------------------------------------------------------------------------
     1   6 C    3.992 --     2 C    1.914     6 C    1.050     7 H    0.957
     2   6 C    3.992 --     1 C    1.914     3 C    1.050     8 H    0.957
     3   6 C    3.993 --     2 C    1.050     9 H    0.973    10 H    0.966
                             4 C    0.941
     4   6 C    3.994 --     5 C    1.058    11 H    0.984    12 H    0.975
                             3 C    0.941
     5   6 C    3.994 --     4 C    1.058    14 H    0.984    13 H    0.975
                             6 C    0.941
     6   6 C    3.993 --     1 C    1.050    15 H    0.974    16 H    0.966
                             5 C    0.941
     7   1 H    0.999 --     1 C    0.957
     8   1 H    0.999 --     2 C    0.957
     9   1 H    0.999 --     3 C    0.973
    10   1 H    0.998 --     3 C    0.966
    11   1 H    0.999 --     4 C    0.984
    12   1 H    0.999 --     4 C    0.975
    13   1 H    0.999 --     5 C    0.975
    14   1 H    0.999 --     5 C    0.984
    15   1 H    0.999 --     6 C    0.974
    16   1 H    0.998 --     6 C    0.966
 ---------------------------------------------------------------------------

Topologies differ in total number of bonds
Writing topology from bond orders to xtbtopo.mol

molecular dipole:
                 x           y           z       tot (Debye)
 q only:        0.015       0.088       0.014
   full:        0.016       0.094       0.015       0.244
molecular quadrupole (traceless):
                xx          xy          yy          xz          yz          zz
 q only:        0.728      -0.171      -0.267      -0.031       0.033      -0.462
  q+dip:        1.470      -0.325      -0.077       0.323       0.150      -1.393
   full:        0.987      -0.237      -0.152       0.216       0.067      -0.835

           -------------------------------------------------
          |                Geometry Summary                 |
           -------------------------------------------------

      molecular mass/u    :       82.1438229
   center of mass at/Å    :       -0.0204599      -0.1185986      -0.0191235
  moments of inertia/u·Å² :        0.1157576E+03   0.1254947E+03   0.2188094E+03
rotational constants/cm⁻¹ :        0.1456287E+00   0.1343294E+00   0.7704254E-01

 * 12 selected distances

     #   Z          #   Z                                           value/Å
     1   6 C        2   6 C                                       1.3246149
     4   6 C        5   6 C                                       1.4847530 (max)
     1   6 C        7   1 H                                       1.0855492
     2   6 C        8   1 H                                       1.0855530
     3   6 C        9   1 H                                       1.0846011
     3   6 C       10   1 H                                       1.0859692
     4   6 C       11   1 H                                       1.0828171
     4   6 C       12   1 H                                       1.0852290
     5   6 C       13   1 H                                       1.0852293
     5   6 C       14   1 H                                       1.0827772 (min)
     6   6 C       15   1 H                                       1.0846195
     6   6 C       16   1 H                                       1.0859312

 * 2 distinct bonds (by element types)

   Z      Z             #   av. dist./Å        max./Å        min./Å
   1 H    6 C          10     1.0848276     1.0859692     1.0827772
   6 C    6 C           2     1.4046840     1.4847530     1.3246149


optimized geometry written to: xtbopt.xyz


           -------------------------------------------------
          | TOTAL ENERGY              -17.856451196195 Eh   |
          | GRADIENT NORM               0.000333087986 Eh/α |
          | HOMO-LUMO GAP               5.007658626999 eV   |
           -------------------------------------------------

------------------------------------------------------------------------
 * finished run on 2025/05/23 at 11:18:29.695     
------------------------------------------------------------------------
 total:
 * wall-time:     0 d,  0 h,  0 min,  0.104 sec
 *  cpu-time:     0 d,  0 h,  0 min,  0.104 sec
 * ratio c/w:     0.999 speedup
 SCF:
 * wall-time:     0 d,  0 h,  0 min,  0.008 sec
 *  cpu-time:     0 d,  0 h,  0 min,  0.008 sec
 * ratio c/w:     1.000 speedup
 ANC optimizer:
 * wall-time:     0 d,  0 h,  0 min,  0.086 sec
 *  cpu-time:     0 d,  0 h,  0 min,  0.086 sec
 * ratio c/w:     0.999 speedup

