      -----------------------------------------------------------      
     |                   =====================                   |     
     |                           x T B                           |     
     |                   =====================                   |     
     |                         S. Grimme                         |     
     |          Mulliken Center for Theoretical Chemistry        |     
     |                    University of Bonn                     |     
      -----------------------------------------------------------      

   * xtb version 6.6.1 (8d0f1dd) compiled by 'conda@1efc2f54142f' on 2023-08-01

   xtb is free software: you can redistribute it and/or modify it under
   the terms of the GNU Lesser General Public License as published by
   the Free Software Foundation, either version 3 of the License, or
   (at your option) any later version.
   
   xtb is distributed in the hope that it will be useful,
   but WITHOUT ANY WARRANTY; without even the implied warranty of
   MERCHANTABILITY or FITNESS FOR A PARTICULAR PURPOSE.  See the
   GNU Lesser General Public License for more details.
   
   Cite this work as:
   * C. Bannwarth, E. Caldeweyher, S. Ehlert, A. Hansen, P. Pracht,
     J. Seibert, S. Spicher, S. Grimme, WIREs Comput. Mol. Sci., 2020, 11,
     e01493. DOI: 10.1002/wcms.1493
   
   for GFN2-xTB:
   * C. Bannwarth, S. Ehlert and S. Grimme., J. Chem. Theory Comput., 2019,
     15, 1652-1671. DOI: 10.1021/acs.jctc.8b01176
   for GFN1-xTB:
   * S. Grimme, C. Bannwarth, P. Shushkov, J. Chem. Theory Comput., 2017,
     13, 1989-2009. DOI: 10.1021/acs.jctc.7b00118
   for GFN0-xTB:
   * P. Pracht, E. Caldeweyher, S. Ehlert, S. Grimme, ChemRxiv, 2019, preprint.
     DOI: 10.26434/chemrxiv.8326202.v1
   for GFN-FF:
   * S. Spicher and S. Grimme, Angew. Chem. Int. Ed., 2020, 59, 15665-15673.
     DOI: 10.1002/anie.202004239
   
   for ALPB and GBSA implicit solvation:
   * S. Ehlert, M. Stahn, S. Spicher, S. Grimme, J. Chem. Theory Comput.,
     2021, 17, 4250-4261. DOI: 10.1021/acs.jctc.1c00471
   
   for DFT-D4:
   * E. Caldeweyher, C. Bannwarth and S. Grimme, J. Chem. Phys., 2017,
     147, 034112. DOI: 10.1063/1.4993215
   * E. Caldeweyher, S. Ehlert, A. Hansen, H. Neugebauer, S. Spicher,
     C. Bannwarth and S. Grimme, J. Chem. Phys., 2019, 150, 154122.
     DOI: 10.1063/1.5090222
   * E. Caldeweyher, J.-M. Mewes, S. Ehlert and S. Grimme, Phys. Chem. Chem. Phys.
     2020, 22, 8499-8512. DOI: 10.1039/D0CP00502A
   
   for sTDA-xTB:
   * S. Grimme and C. Bannwarth, J. Chem. Phys., 2016, 145, 054103.
     DOI: 10.1063/1.4959605
   
   in the mass-spec context:
   * V. Asgeirsson, C. Bauer and S. Grimme, Chem. Sci., 2017, 8, 4879.
     DOI: 10.1039/c7sc00601b
   * J. Koopman and S. Grimme, ACS Omega 2019, 4, 12, 15120-15133.
     DOI: 10.1021/acsomega.9b02011
   
   for metadynamics refer to:
   * S. Grimme, J. Chem. Theory Comput., 2019, 155, 2847-2862
     DOI: 10.1021/acs.jctc.9b00143
   
   for SPH calculations refer to:
   * S. Spicher and S. Grimme, J. Chem. Theory Comput., 2021, 17, 1701-1714
     DOI: 10.1021/acs.jctc.0c01306
   
   with help from (in alphabetical order)
   P. Atkinson, C. Bannwarth, F. Bohle, G. Brandenburg, E. Caldeweyher
   M. Checinski, S. Dohm, S. Ehlert, S. Ehrlich, I. Gerasimov, C. Hölzer
   A. Katbashev, J. Koopman, C. Lavigne, S. Lehtola, F. März, M. Müller,
   F. Musil, H. Neugebauer, J. Pisarek, C. Plett, P. Pracht, F. Pultar,
   J. Seibert, P. Shushkov, S. Spicher, M. Stahn, M. Steiner, T. Strunk,
   J. Stückrath, T. Rose, and J. Unsleber
   
 * started run on 2025/05/23 at 11:18:27.905     

           -------------------------------------------------
          |                Calculation Setup                |
           -------------------------------------------------

          program call               : /home/avcopan/code/other/saddle-search-practice/.pixi/envs/default/bin/xtb path_opt0_xtb.xyz --chrg 0 --uhf 0 --opt --input xcontrol_path_opt0_xtb
          coordinate file            : path_opt0_xtb.xyz
          omp threads                :                     1

   ID    Z sym.   atoms
    1    6 C      1-6
    2    1 H      7-16
constraining bond 3 4 to    1.7257000 Å, actual value:    1.5257813 Å
constraining bond 5 6 to    1.7258000 Å, actual value:    1.5258636 Å

           -------------------------------------------------
          |                 G F N 2 - x T B                 |
           -------------------------------------------------

        Reference                      10.1021/acs.jctc.8b01176
      * Hamiltonian:
        H0-scaling (s, p, d)           1.850000    2.230000    2.230000
        zeta-weighting                 0.500000
      * Dispersion:
        s8                             2.700000
        a1                             0.520000
        a2                             5.000000
        s9                             5.000000
      * Repulsion:
        kExp                           1.500000    1.000000
        rExp                           1.000000
      * Coulomb:
        alpha                          2.000000
        third order                    shell-resolved
        anisotropic                    true
        a3                             3.000000
        a5                             4.000000
        cn-shift                       1.200000
        cn-exp                         4.000000
        max-rad                        5.000000


          ...................................................
          :                      SETUP                      :
          :.................................................:
          :  # basis functions                  34          :
          :  # atomic orbitals                  34          :
          :  # shells                           22          :
          :  # electrons                        34          :
          :  max. iterations                   250          :
          :  Hamiltonian                  GFN2-xTB          :
          :  restarted?                      false          :
          :  GBSA solvation                  false          :
          :  PC potential                    false          :
          :  electronic temp.          300.0000000     K    :
          :  accuracy                    1.0000000          :
          :  -> integral cutoff          0.2500000E+02      :
          :  -> integral neglect         0.1000000E-07      :
          :  -> SCF convergence          0.1000000E-05 Eh   :
          :  -> wf. convergence          0.1000000E-03 e    :
          :  Broyden damping             0.4000000          :
          ...................................................

 iter      E             dE          RMSdq      gap      omega  full diag
   1    -18.1877630 -0.181878E+02  0.329E+00    5.35       0.0  T
   2    -18.2241507 -0.363877E-01  0.190E+00    5.28       1.0  T
   3    -18.2246928 -0.542077E-03  0.756E-01    5.23       1.0  T
   4    -18.2247992 -0.106404E-03  0.767E-02    5.23       1.0  T
   5    -18.2248039 -0.473324E-05  0.415E-02    5.23       1.0  T
   6    -18.2248042 -0.216305E-06  0.360E-03    5.23       6.9  T
   7    -18.2248042 -0.693592E-07  0.159E-03    5.23      15.7  T
   8    -18.2248042 -0.190340E-08  0.232E-04    5.23     107.7  T
   9    -18.2248042 -0.598419E-10  0.134E-04    5.23     186.9  T

   *** convergence criteria satisfied after 9 iterations ***

         #    Occupation            Energy/Eh            Energy/eV
      -------------------------------------------------------------
         1        2.0000           -0.6302453             -17.1498
       ...           ...                  ...                  ...
        11        2.0000           -0.4659524             -12.6792
        12        2.0000           -0.4637871             -12.6203
        13        2.0000           -0.4593215             -12.4988
        14        2.0000           -0.4267739             -11.6131
        15        2.0000           -0.4166067             -11.3364
        16        2.0000           -0.4073638             -11.0849
        17        2.0000           -0.3807076             -10.3596 (HOMO)
        18                         -0.1883496              -5.1253 (LUMO)
        19                          0.0981211               2.6700
        20                          0.1028722               2.7993
        21                          0.1096765               2.9844
        22                          0.1232879               3.3548
       ...                                ...                  ...
        34                          0.6419021              17.4670
      -------------------------------------------------------------
                  HL-Gap            0.1923580 Eh            5.2343 eV
             Fermi-level           -0.2845286 Eh           -7.7424 eV

 SCC (total)                   0 d,  0 h,  0 min,  0.009 sec
 SCC setup                      ...        0 min,  0.000 sec (  1.705%)
 Dispersion                     ...        0 min,  0.000 sec (  0.956%)
 classical contributions        ...        0 min,  0.000 sec (  0.310%)
 integral evaluation            ...        0 min,  0.002 sec ( 17.410%)
 iterations                     ...        0 min,  0.004 sec ( 43.790%)
 molecular gradient             ...        0 min,  0.003 sec ( 31.833%)
 printout                       ...        0 min,  0.000 sec (  3.814%)

         :::::::::::::::::::::::::::::::::::::::::::::::::::::
         ::                     SUMMARY                     ::
         :::::::::::::::::::::::::::::::::::::::::::::::::::::
         :: total energy             -17.360482177711 Eh    ::
         :: gradient norm              3.023229999822 Eh/a0 ::
         :: HOMO-LUMO gap              5.234326946899 eV    ::
         ::.................................................::
         :: SCC energy               -18.224804230562 Eh    ::
         :: -> isotropic ES            0.002326465621 Eh    ::
         :: -> anisotropic ES          0.004503773194 Eh    ::
         :: -> anisotropic XC          0.011488823509 Eh    ::
         :: -> dispersion             -0.010085136418 Eh    ::
         :: repulsion energy           0.293345754990 Eh    ::
         :: add. restraining           0.570956171913 Eh    ::
         :: total charge              -0.000000000000 e     ::
         :::::::::::::::::::::::::::::::::::::::::::::::::::::

      ----------------------------------------------------------- 
     |                   =====================                   |
     |                        A N C O P T                        |
     |                   =====================                   |
     |               Approximate Normal Coordinate               |
     |                Rational Function Optimizer                |
      ----------------------------------------------------------- 

          ...................................................
          :                      SETUP                      :
          :.................................................:
          :   optimization level            normal          :
          :   max. optcycles                   200          :
          :   ANC micro-cycles                  20          :
          :   degrees of freedom                42          :
          :.................................................:
          :   RF solver                   davidson          :
          :   write xtbopt.log                true          :
          :   linear?                        false          :
          :   energy convergence         0.5000000E-05 Eh   :
          :   grad. convergence          0.1000000E-02 Eh/α :
          :   maxmium RF displ.          1.0000000          :
          :   Hlow (freq-cutoff)         0.1000000E-01      :
          :   Hmax (freq-cutoff)         5.0000000          :
          :   S6 in model hess.         20.0000000          :
          ...................................................

generating ANC from model Hessian ...
Using Lindh-Hessian (1995)
 Shifting diagonal of input Hessian by   0.53637052297252885     
 Lowest  eigenvalues of input Hessian
    0.010000    0.074556    0.139486    0.229315    0.000000    0.000000
    0.000000    0.000000    0.000000    0.000000    0.553320    0.560108
    0.560754    0.568479    0.583328    0.584205    0.589222    0.592095
 Highest eigenvalues
    1.599556    1.696160    1.981648    2.438237    9.677396    9.689929


........................................................................
.............................. CYCLE    1 ..............................
........................................................................

 iter      E             dE          RMSdq      gap      omega  full diag
   1    -18.2248042 -0.182248E+02  0.649E-05    5.23       0.0  T
   2    -18.2248042 -0.844125E-11  0.494E-05    5.23     506.5  T
   3    -18.2248042 -0.243325E-10  0.195E-05    5.23    1280.5  T
     SCC iter.                  ...        0 min,  0.002 sec
     gradient                   ...        0 min,  0.003 sec
 * total energy  :   -17.3604822 Eh     change       -0.7304379E-10 Eh
   gradient norm :     3.0232300 Eh/α   predicted     0.0000000E+00 (-100.00%)
   displ. norm   :     0.4720920 α      lambda       -0.1424948E+01
   maximum displ.:     0.4703102 α      in ANC's #41, #27, #28, ...

........................................................................
.............................. CYCLE    2 ..............................
........................................................................

 iter      E             dE          RMSdq      gap      omega  full diag
   1    -18.2055580 -0.182056E+02  0.614E-01    5.12       0.0  T
   2    -18.2059144 -0.356400E-03  0.372E-01    5.09       1.0  T
   3    -18.2058911  0.232955E-04  0.907E-02    5.09       1.0  T
   4    -18.2059191 -0.280380E-04  0.236E-02    5.09       1.1  T
   5    -18.2059271 -0.802002E-05  0.441E-03    5.09       5.7  T
   6    -18.2059272 -0.144587E-07  0.206E-03    5.09      12.2  T
   7    -18.2059272 -0.863267E-09  0.141E-04    5.09     177.7  T
   8    -18.2059272  0.492335E-10  0.815E-05    5.09     306.8  T
     SCC iter.                  ...        0 min,  0.003 sec
     gradient                   ...        0 min,  0.003 sec
 * total energy  :   -17.8437577 Eh     change       -0.4832755E+00 Eh
   gradient norm :     0.9446136 Eh/α   predicted    -0.8712635E+00 (  80.28%)
   displ. norm   :     0.1242448 α      lambda       -0.1062191E+00
   maximum displ.:     0.1108954 α      in ANC's #41, #2, #27, ...

........................................................................
.............................. CYCLE    3 ..............................
........................................................................

 iter      E             dE          RMSdq      gap      omega  full diag
   1    -18.2084949 -0.182085E+02  0.186E-01    5.16       0.0  T
   2    -18.2085345 -0.395121E-04  0.108E-01    5.17       1.0  T
   3    -18.2085311  0.335408E-05  0.378E-02    5.17       1.0  T
   4    -18.2085373 -0.615961E-05  0.618E-03    5.17       4.0  T
   5    -18.2085377 -0.402046E-06  0.137E-03    5.17      18.3  T
   6    -18.2085377 -0.137426E-08  0.579E-04    5.17      43.2  T
   7    -18.2085377 -0.239424E-09  0.701E-05    5.17     356.6  T
     SCC iter.                  ...        0 min,  0.002 sec
     gradient                   ...        0 min,  0.003 sec
 * total energy  :   -17.8992473 Eh     change       -0.5548961E-01 Eh
   gradient norm :     0.0467362 Eh/α   predicted    -0.5392942E-01 (  -2.81%)
   displ. norm   :     0.0522489 α      lambda       -0.1678850E-02
   maximum displ.:     0.0344695 α      in ANC's #27, #2, #18, ...

........................................................................
.............................. CYCLE    4 ..............................
........................................................................

 iter      E             dE          RMSdq      gap      omega  full diag
   1    -18.2019539 -0.182020E+02  0.697E-02    5.16       0.0  T
   2    -18.2019586 -0.469474E-05  0.396E-02    5.16       1.0  T
   3    -18.2019583  0.352379E-06  0.126E-02    5.16       2.0  T
   4    -18.2019591 -0.786059E-06  0.240E-03    5.16      10.4  T
   5    -18.2019591 -0.373909E-07  0.106E-03    5.16      23.6  T
   6    -18.2019591 -0.448242E-09  0.230E-04    5.16     108.5  T
   7    -18.2019591  0.554223E-12  0.138E-04    5.16     180.7  T
     SCC iter.                  ...        0 min,  0.002 sec
     gradient                   ...        0 min,  0.003 sec
 * total energy  :   -17.9004326 Eh     change       -0.1185361E-02 Eh
   gradient norm :     0.0282979 Eh/α   predicted    -0.8417160E-03 ( -28.99%)
   displ. norm   :     0.1945468 α      lambda       -0.4381502E-02
   maximum displ.:     0.1176033 α      in ANC's #2, #27, #18, ...

........................................................................
.............................. CYCLE    5 ..............................
........................................................................

 iter      E             dE          RMSdq      gap      omega  full diag
   1    -18.1813521 -0.181814E+02  0.279E-01    5.15       0.0  T
   2    -18.1813904 -0.382400E-04  0.158E-01    5.15       1.0  T
   3    -18.1813897  0.653944E-06  0.304E-02    5.15       1.0  T
   4    -18.1813926 -0.290086E-05  0.739E-03    5.15       3.4  T
   5    -18.1813930 -0.400413E-06  0.317E-03    5.15       7.9  T
   6    -18.1813930  0.145095E-08  0.140E-03    5.15      17.8  T
   7    -18.1813930 -0.122306E-07  0.591E-04    5.15      42.3  T
   8    -18.1813930 -0.342913E-08  0.149E-04    5.15     167.6  T
     SCC iter.                  ...        0 min,  0.003 sec
     gradient                   ...        0 min,  0.004 sec
 * total energy  :   -17.9012730 Eh     change       -0.8404088E-03 Eh
   gradient norm :     0.0852897 Eh/α   predicted    -0.2273658E-02 ( 170.54%)
   displ. norm   :     0.0670530 α      lambda       -0.1938944E-02
   maximum displ.:     0.0592690 α      in ANC's #2, #1, #27, ...

........................................................................
.............................. CYCLE    6 ..............................
........................................................................

 iter      E             dE          RMSdq      gap      omega  full diag
   1    -18.1833268 -0.181833E+02  0.122E-01    5.15       0.0  T
   2    -18.1833297 -0.288790E-05  0.719E-02    5.15       1.0  T
   3    -18.1833263  0.336033E-05  0.183E-02    5.15       1.4  T
   4    -18.1833301 -0.380469E-05  0.471E-03    5.15       5.3  T
   5    -18.1833304 -0.230211E-06  0.164E-03    5.15      15.2  T
   6    -18.1833304 -0.183397E-07  0.594E-04    5.15      42.1  T
   7    -18.1833304 -0.376826E-09  0.918E-05    5.15     272.2  T
     SCC iter.                  ...        0 min,  0.004 sec
     gradient                   ...        0 min,  0.006 sec
 * total energy  :   -17.9023564 Eh     change       -0.1083416E-02 Eh
   gradient norm :     0.0245243 Eh/α   predicted    -0.9738325E-03 ( -10.11%)
   displ. norm   :     0.4309383 α      lambda       -0.2910732E-02
   maximum displ.:     0.4197150 α      in ANC's #1, #2, #28, ...

........................................................................
.............................. CYCLE    7 ..............................
........................................................................

 iter      E             dE          RMSdq      gap      omega  full diag
   1    -18.1649465 -0.181649E+02  0.744E-01    5.11       0.0  T
   2    -18.1649938 -0.472376E-04  0.447E-01    5.11       1.0  T
   3    -18.1643684  0.625325E-03  0.233E-01    5.11       1.0  T
   4    -18.1650709 -0.702490E-03  0.167E-02    5.11       1.5  T
   5    -18.1650732 -0.226967E-05  0.676E-03    5.11       3.7  T
   6    -18.1650733 -0.944622E-07  0.311E-03    5.11       8.0  T
   7    -18.1650733 -0.206913E-07  0.392E-04    5.11      63.8  T
   8    -18.1650733 -0.250900E-09  0.167E-04    5.11     150.1  T
     SCC iter.                  ...        0 min,  0.005 sec
     gradient                   ...        0 min,  0.005 sec
 * total energy  :   -17.8777081 Eh     change        0.2464839E-01 Eh
   gradient norm :     0.3123220 Eh/α   predicted    -0.1725652E-02 (-107.00%)
   displ. norm   :     0.3429801 α      lambda       -0.4892720E-01
   maximum displ.:     0.3327746 α      in ANC's #1, #2, #41, ...

........................................................................
.............................. CYCLE    8 ..............................
........................................................................

 iter      E             dE          RMSdq      gap      omega  full diag
   1    -18.1838484 -0.181838E+02  0.608E-01    5.15       0.0  T
   2    -18.1838833 -0.348385E-04  0.366E-01    5.15       1.0  T
   3    -18.1834578  0.425425E-03  0.194E-01    5.15       1.0  T
   4    -18.1839387 -0.480840E-03  0.134E-02    5.15       1.9  T
   5    -18.1839399 -0.125369E-05  0.552E-03    5.15       4.5  T
   6    -18.1839400 -0.454587E-07  0.240E-03    5.15      10.4  T
   7    -18.1839400 -0.119360E-07  0.334E-04    5.15      74.8  T
   8    -18.1839400 -0.155016E-09  0.141E-04    5.15     177.5  T
     SCC iter.                  ...        0 min,  0.003 sec
     gradient                   ...        0 min,  0.003 sec
 * total energy  :   -17.9022701 Eh     change       -0.2456205E-01 Eh
   gradient norm :     0.0262477 Eh/α   predicted    -0.2734140E-01 (  11.32%)
   displ. norm   :     0.0526375 α      lambda       -0.8437028E-03
   maximum displ.:     0.0471612 α      in ANC's #1, #15, #18, ...

........................................................................
.............................. CYCLE    9 ..............................
........................................................................

 iter      E             dE          RMSdq      gap      omega  full diag
   1    -18.1848292 -0.181848E+02  0.921E-02    5.15       0.0  T
   2    -18.1848300 -0.785262E-06  0.556E-02    5.15       1.0  T
   3    -18.1848201  0.996428E-05  0.296E-02    5.15       1.0  T
   4    -18.1848313 -0.112553E-04  0.177E-03    5.15      14.2  T
   5    -18.1848313 -0.233387E-07  0.747E-04    5.15      33.5  T
   6    -18.1848313 -0.643130E-09  0.347E-04    5.15      72.0  T
     SCC iter.                  ...        0 min,  0.002 sec
     gradient                   ...        0 min,  0.004 sec
 * total energy  :   -17.9027532 Eh     change       -0.4831078E-03 Eh
   gradient norm :     0.0152401 Eh/α   predicted    -0.4230211E-03 ( -12.44%)
   displ. norm   :     0.0281611 α      lambda       -0.1688695E-03
   maximum displ.:     0.0138492 α      in ANC's #15, #18, #1, ...

........................................................................
.............................. CYCLE   10 ..............................
........................................................................

 iter      E             dE          RMSdq      gap      omega  full diag
   1    -18.1848061 -0.181848E+02  0.390E-02    5.16       0.0  T
   2    -18.1848062 -0.805526E-07  0.231E-02    5.16       1.1  T
   3    -18.1848054  0.799487E-06  0.811E-03    5.16       3.1  T
   4    -18.1848063 -0.886892E-06  0.656E-04    5.16      38.1  T
   5    -18.1848063 -0.268598E-08  0.278E-04    5.16      89.8  T
     SCC iter.                  ...        0 min,  0.001 sec
     gradient                   ...        0 min,  0.003 sec
 * total energy  :   -17.9028707 Eh     change       -0.1175121E-03 Eh
   gradient norm :     0.0121406 Eh/α   predicted    -0.8450214E-04 ( -28.09%)
   displ. norm   :     0.0438621 α      lambda       -0.2001164E-03
   maximum displ.:     0.0259720 α      in ANC's #15, #18, #2, ...

........................................................................
.............................. CYCLE   11 ..............................
........................................................................

 iter      E             dE          RMSdq      gap      omega  full diag
   1    -18.1852453 -0.181852E+02  0.597E-02    5.16       0.0  T
   2    -18.1852455 -0.180876E-06  0.350E-02    5.16       1.0  T
   3    -18.1852445  0.931496E-06  0.899E-03    5.16       2.8  T
   4    -18.1852456 -0.104850E-05  0.986E-04    5.16      25.4  T
   5    -18.1852456 -0.709181E-08  0.427E-04    5.16      58.6  T
   6    -18.1852456 -0.263878E-09  0.168E-04    5.16     149.1  T
     SCC iter.                  ...        0 min,  0.002 sec
     gradient                   ...        0 min,  0.003 sec
 * total energy  :   -17.9029914 Eh     change       -0.1206616E-03 Eh
   gradient norm :     0.0076512 Eh/α   predicted    -0.1002498E-03 ( -16.92%)
   displ. norm   :     0.0269682 α      lambda       -0.9521226E-04
   maximum displ.:     0.0166144 α      in ANC's #15, #18, #3, ...

........................................................................
.............................. CYCLE   12 ..............................
........................................................................

 iter      E             dE          RMSdq      gap      omega  full diag
   1    -18.1864537 -0.181865E+02  0.349E-02    5.17       0.0  T
   2    -18.1864538 -0.128278E-06  0.211E-02    5.17       1.2  T
   3    -18.1864521  0.177077E-05  0.132E-02    5.17       1.9  T
   4    -18.1864542 -0.211445E-05  0.847E-04    5.17      29.5  T
   5    -18.1864542 -0.402224E-08  0.391E-04    5.17      64.0  T
   6    -18.1864542 -0.187551E-09  0.143E-04    5.17     174.5  T
     SCC iter.                  ...        0 min,  0.003 sec
     gradient                   ...        0 min,  0.003 sec
 * total energy  :   -17.9030422 Eh     change       -0.5082062E-04 Eh
   gradient norm :     0.0077197 Eh/α   predicted    -0.4764030E-04 (  -6.26%)
   displ. norm   :     0.0128415 α      lambda       -0.3907312E-04
   maximum displ.:     0.0062593 α      in ANC's #15, #9, #1, ...

........................................................................
.............................. CYCLE   13 ..............................
........................................................................

 iter      E             dE          RMSdq      gap      omega  full diag
   1    -18.1872679 -0.181873E+02  0.177E-02    5.17       0.0  T
   2    -18.1872679 -0.320592E-07  0.105E-02    5.17       2.4  T
   3    -18.1872678  0.131572E-06  0.338E-03    5.17       7.4  T
   4    -18.1872680 -0.147493E-06  0.466E-04    5.17      53.7  T
   5    -18.1872680 -0.173874E-08  0.192E-04    5.17     130.2  T
     SCC iter.                  ...        0 min,  0.002 sec
     gradient                   ...        0 min,  0.003 sec
 * total energy  :   -17.9030648 Eh     change       -0.2260496E-04 Eh
   gradient norm :     0.0054625 Eh/α   predicted    -0.1953929E-04 ( -13.56%)
   displ. norm   :     0.0070210 α      lambda       -0.1621069E-04
   maximum displ.:     0.0039383 α      in ANC's #9, #17, #1, ...

........................................................................
.............................. CYCLE   14 ..............................
........................................................................

 iter      E             dE          RMSdq      gap      omega  full diag
   1    -18.1874217 -0.181874E+02  0.897E-03    5.17       0.0  T
   2    -18.1874217 -0.632786E-08  0.530E-03    5.17       4.7  T
   3    -18.1874217  0.212972E-07  0.134E-03    5.17      18.7  T
   4    -18.1874217 -0.240391E-07  0.224E-04    5.17     111.4  T
   5    -18.1874217 -0.423999E-09  0.801E-05    5.17     312.1  T
     SCC iter.                  ...        0 min,  0.003 sec
     gradient                   ...        0 min,  0.003 sec
 * total energy  :   -17.9030768 Eh     change       -0.1196920E-04 Eh
   gradient norm :     0.0022489 Eh/α   predicted    -0.8104705E-05 ( -32.29%)
   displ. norm   :     0.0104541 α      lambda       -0.1615249E-04
   maximum displ.:     0.0067874 α      in ANC's #9, #17, #8, ...

........................................................................
.............................. CYCLE   15 ..............................
........................................................................

 iter      E             dE          RMSdq      gap      omega  full diag
   1    -18.1874637 -0.181875E+02  0.109E-02    5.17       0.0  T
   2    -18.1874638 -0.220339E-07  0.641E-03    5.18       3.9  T
   3    -18.1874637  0.239563E-07  0.152E-03    5.17      16.4  T
   4    -18.1874638 -0.272154E-07  0.452E-04    5.17      55.3  T
   5    -18.1874638 -0.202625E-08  0.132E-04    5.17     189.7  T
     SCC iter.                  ...        0 min,  0.002 sec
     gradient                   ...        0 min,  0.003 sec
 * total energy  :   -17.9030878 Eh     change       -0.1099707E-04 Eh
   gradient norm :     0.0035846 Eh/α   predicted    -0.8075730E-05 ( -26.56%)
   displ. norm   :     0.0091522 α      lambda       -0.8880517E-05
   maximum displ.:     0.0063586 α      in ANC's #9, #17, #8, ...

........................................................................
.............................. CYCLE   16 ..............................
........................................................................

 iter      E             dE          RMSdq      gap      omega  full diag
   1    -18.1874575 -0.181875E+02  0.768E-03    5.18       0.0  T
   2    -18.1874575 -0.139467E-07  0.450E-03    5.18       5.6  T
   3    -18.1874575  0.202035E-07  0.140E-03    5.18      17.9  T
   4    -18.1874575 -0.228728E-07  0.356E-04    5.18      70.3  T
   5    -18.1874575 -0.120802E-08  0.105E-04    5.18     237.2  T
     SCC iter.                  ...        0 min,  0.002 sec
     gradient                   ...        0 min,  0.003 sec
 * total energy  :   -17.9030942 Eh     change       -0.6408817E-05 Eh
   gradient norm :     0.0031651 Eh/α   predicted    -0.4442535E-05 ( -30.68%)
   displ. norm   :     0.0098826 α      lambda       -0.7657969E-05
   maximum displ.:     0.0069847 α      in ANC's #9, #8, #17, ...

........................................................................
.............................. CYCLE   17 ..............................
........................................................................

 iter      E             dE          RMSdq      gap      omega  full diag
   1    -18.1874342 -0.181874E+02  0.692E-03    5.18       0.0  T
   2    -18.1874342 -0.872422E-08  0.408E-03    5.18       6.1  T
   3    -18.1874342  0.124320E-07  0.108E-03    5.18      23.1  T
   4    -18.1874342 -0.143216E-07  0.288E-04    5.18      86.7  T
   5    -18.1874342 -0.811777E-09  0.944E-05    5.18     264.8  T
     SCC iter.                  ...        0 min,  0.002 sec
     gradient                   ...        0 min,  0.003 sec
 * total energy  :   -17.9030998 Eh     change       -0.5589698E-05 Eh
   gradient norm :     0.0018814 Eh/α   predicted    -0.3827682E-05 ( -31.52%)
   displ. norm   :     0.0176884 α      lambda       -0.7847862E-05
   maximum displ.:     0.0121196 α      in ANC's #9, #8, #2, ...

........................................................................
.............................. CYCLE   18 ..............................
........................................................................

 iter      E             dE          RMSdq      gap      omega  full diag
   1    -18.1873825 -0.181874E+02  0.101E-02    5.18       0.0  T
   2    -18.1873825 -0.111494E-07  0.599E-03    5.18       4.2  T
   3    -18.1873825  0.704151E-08  0.882E-04    5.18      28.4  T
   4    -18.1873825 -0.101914E-07  0.253E-04    5.18      98.8  T
     SCC iter.                  ...        0 min,  0.001 sec
     gradient                   ...        0 min,  0.003 sec
 * total energy  :   -17.9031072 Eh     change       -0.7441108E-05 Eh
   gradient norm :     0.0032803 Eh/α   predicted    -0.3923511E-05 ( -47.27%)
   displ. norm   :     0.0088949 α      lambda       -0.6697467E-05
   maximum displ.:     0.0052913 α      in ANC's #9, #2, #8, ...

........................................................................
.............................. CYCLE   19 ..............................
........................................................................

 iter      E             dE          RMSdq      gap      omega  full diag
   1    -18.1873672 -0.181874E+02  0.387E-03    5.18       0.0  T
   2    -18.1873672 -0.289910E-08  0.227E-03    5.18      11.0  T
   3    -18.1873672  0.416278E-08  0.626E-04    5.18      39.9  T
   4    -18.1873672 -0.495440E-08  0.157E-04    5.18     159.4  T
     SCC iter.                  ...        0 min,  0.001 sec
     gradient                   ...        0 min,  0.003 sec
 * total energy  :   -17.9031130 Eh     change       -0.5816619E-05 Eh
   gradient norm :     0.0031394 Eh/α   predicted    -0.3349386E-05 ( -42.42%)
   displ. norm   :     0.0286728 α      lambda       -0.1857189E-04
   maximum displ.:     0.0166430 α      in ANC's #9, #8, #2, ...

........................................................................
.............................. CYCLE   20 ..............................
........................................................................

 iter      E             dE          RMSdq      gap      omega  full diag
   1    -18.1873504 -0.181874E+02  0.109E-02    5.18       0.0  T
   2    -18.1873504 -0.203282E-07  0.644E-03    5.18       3.9  T
   3    -18.1873503  0.682588E-07  0.244E-03    5.18      10.2  T
   4    -18.1873504 -0.787852E-07  0.388E-04    5.18      64.5  T
   5    -18.1873504 -0.904187E-09  0.156E-04    5.18     160.6  T
     SCC iter.                  ...        0 min,  0.002 sec
     gradient                   ...        0 min,  0.003 sec
 * total energy  :   -17.9031241 Eh     change       -0.1108500E-04 Eh
   gradient norm :     0.0019970 Eh/α   predicted    -0.9294649E-05 ( -16.15%)
   displ. norm   :     0.0149897 α      lambda       -0.4434104E-05
   maximum displ.:     0.0085683 α      in ANC's #8, #9, #2, ...
 * RMSD in coord.:     0.1319498 α      energy gain  -0.5426419E+00 Eh

generating ANC from model Hessian ...
Using Lindh-Hessian (1995)
 Shifting diagonal of input Hessian by    6.7857271155633715E-003
 Lowest  eigenvalues of input Hessian
    0.000000    0.000000    0.000000    0.000000    0.000000    0.000000
    0.010000    0.010859    0.016615    0.024393    0.028042    0.032109
    0.036365    0.040250    0.043057    0.045762    0.047389    0.051951
 Highest eigenvalues
    1.191387    1.241050    1.490402    1.930119    8.712647    8.724317


........................................................................
.............................. CYCLE   21 ..............................
........................................................................

 iter      E             dE          RMSdq      gap      omega  full diag
   1    -18.1874003 -0.181874E+02  0.500E-03    5.18       0.0  T
   2    -18.1874004 -0.438889E-08  0.297E-03    5.18       8.4  T
   3    -18.1874003  0.139955E-07  0.111E-03    5.18      22.5  T
   4    -18.1874004 -0.159128E-07  0.190E-04    5.18     131.9  T
   5    -18.1874004 -0.263000E-09  0.715E-05    5.18     349.5  T
     SCC iter.                  ...        0 min,  0.002 sec
     gradient                   ...        0 min,  0.003 sec
 * total energy  :   -17.9031291 Eh     change       -0.4950301E-05 Eh
   gradient norm :     0.0017264 Eh/α   predicted     0.0000000E+00 (-100.00%)
   displ. norm   :     0.0621584 α      lambda       -0.3342477E-04
   maximum displ.:     0.0533595 α      in ANC's #2, #4, #5, ...

........................................................................
.............................. CYCLE   22 ..............................
........................................................................

 iter      E             dE          RMSdq      gap      omega  full diag
   1    -18.1874305 -0.181874E+02  0.337E-02    5.18       0.0  T
   2    -18.1874305 -0.581305E-07  0.199E-02    5.18       1.3  T
   3    -18.1874305  0.401243E-07  0.228E-03    5.18      11.0  T
   4    -18.1874306 -0.664750E-07  0.654E-04    5.18      38.2  T
   5    -18.1874306 -0.128487E-08  0.280E-04    5.18      89.4  T
     SCC iter.                  ...        0 min,  0.001 sec
     gradient                   ...        0 min,  0.003 sec
 * total energy  :   -17.9031497 Eh     change       -0.2060694E-04 Eh
   gradient norm :     0.0011844 Eh/α   predicted    -0.1674130E-04 ( -18.76%)
   displ. norm   :     0.0299232 α      lambda       -0.9651802E-05
   maximum displ.:     0.0227503 α      in ANC's #2, #4, #8, ...

........................................................................
.............................. CYCLE   23 ..............................
........................................................................

 iter      E             dE          RMSdq      gap      omega  full diag
   1    -18.1874120 -0.181874E+02  0.179E-02    5.18       0.0  T
   2    -18.1874120 -0.276407E-07  0.105E-02    5.18       2.4  T
   3    -18.1874120  0.820883E-08  0.111E-03    5.18      22.5  T
   4    -18.1874120 -0.126550E-07  0.355E-04    5.18      70.5  T
   5    -18.1874120 -0.842007E-09  0.187E-04    5.18     133.7  T
     SCC iter.                  ...        0 min,  0.002 sec
     gradient                   ...        0 min,  0.003 sec
 * total energy  :   -17.9031561 Eh     change       -0.6381046E-05 Eh
   gradient norm :     0.0011857 Eh/α   predicted    -0.4827670E-05 ( -24.34%)
   displ. norm   :     0.0250603 α      lambda       -0.6080880E-05
   maximum displ.:     0.0139266 α      in ANC's #2, #4, #3, ...

........................................................................
.............................. CYCLE   24 ..............................
........................................................................

 iter      E             dE          RMSdq      gap      omega  full diag
   1    -18.1874269 -0.181874E+02  0.194E-02    5.18       0.0  T
   2    -18.1874269 -0.187526E-07  0.115E-02    5.18       2.2  T
   3    -18.1874269  0.667021E-08  0.104E-03    5.18      24.1  T
   4    -18.1874269 -0.108795E-07  0.357E-04    5.18      69.9  T
   5    -18.1874269 -0.980840E-09  0.165E-04    5.18     151.1  T
     SCC iter.                  ...        0 min,  0.002 sec
     gradient                   ...        0 min,  0.003 sec
 * total energy  :   -17.9031566 Eh     change       -0.5010886E-06 Eh
   gradient norm :     0.0009375 Eh/α   predicted    -0.3040409E-05 ( 506.76%)
   displ. norm   :     0.0122173 α      lambda       -0.4376638E-05
   maximum displ.:     0.0059760 α      in ANC's #1, #3, #6, ...

   *** GEOMETRY OPTIMIZATION CONVERGED AFTER 24 ITERATIONS ***

------------------------------------------------------------------------
 total energy gain   :        -0.5426744 Eh     -340.5333 kcal/mol
 total RMSD          :         0.1388870 a0        0.0735 Å
 total power (kW/mol):       -59.3663075 (step)-7553.8042 (real)
------------------------------------------------------------------------

 ANCopt (total)                0 d,  0 h,  0 min,  0.189 sec
 optimizer setup                ...        0 min,  0.000 sec (  0.073%)
 model hessian                  ...        0 min,  0.012 sec (  6.328%)
 ANC generation                 ...        0 min,  0.001 sec (  0.334%)
 coordinate transformation      ...        0 min,  0.000 sec (  0.088%)
 single point calculation       ...        0 min,  0.168 sec ( 88.995%)
 optimization log               ...        0 min,  0.003 sec (  1.536%)
 hessian update                 ...        0 min,  0.000 sec (  0.135%)
 rational function              ...        0 min,  0.003 sec (  1.595%)

================
 final structure:
================
16
 xtb: 6.6.1 (8d0f1dd)
C           -0.88999507157559       -1.27653832536993       -0.18667235092808
C            0.41413199014528       -1.48940721461331       -0.26017162610717
C            1.47550997705697       -0.45896152715339       -0.11609034379808
C            0.80753809930398        1.11734967864247       -0.24821245458632
C           -0.41209149109013        1.18770479134910        0.62288319743294
C           -1.54742627351625        0.03609319958044        0.04539584166945
H           -1.57178062903877       -2.10918996507738       -0.31461703877366
H            0.77876115689364       -2.49624069458714       -0.42675719589243
H            2.23446460928247       -0.55739242368103       -0.88913058301409
H            1.95041065236702       -0.51994230263534        0.86239029679704
H            0.56606237230106        1.27132459687181       -1.29601481052883
H            1.58138541422881        1.81438549747143        0.06430861251706
H           -0.89768884572398        2.15975775765817        0.58007014082481
H           -0.18934069969241        0.92524296510611        1.65312689280784
H           -2.33754251607720       -0.03987373184867        0.78897273515283
H           -1.96230874486488        0.43557769828668       -0.87929131357331

 Bond Distances (Angstroems)
 ---------------------------
C1-C2=1.3234         C1-C6=1.4863         C1-H7=1.0837         C2-C1=1.3234         C2-C3=1.4863         C2-H8=1.0837         
C3-C2=1.4863         C3-C4=1.7171         C3-H9=1.0878         C3-H10=1.0893        C4-C3=1.7171         C4-C5=1.5004         
C4-H11=1.0862        C4-H12=1.0874        C5-C4=1.5004         C5-C6=1.7172         C5-H13=1.0874        C5-H14=1.0862        
C6-C1=1.4863         C6-C5=1.7172         C6-H15=1.0876        C6-H16=1.0894        H7-C1=1.0837         H8-C2=1.0837         
H9-C3=1.0878         H10-C3=1.0893        H11-C4=1.0862        H12-C4=1.0874        H13-C5=1.0874        H14-C5=1.0862        
H15-C6=1.0876        H16-C6=1.0894        
 C  H  Rav=1.0869 sigma=0.0019  Rmin=1.0837  Rmax=1.0894    10
 C  C  Rav=1.5385 sigma=0.1396  Rmin=1.3234  Rmax=1.7172     6

 selected bond angles (degree)
 --------------------
C6-C1-C2=125.92                H7-C1-C2=119.33                H7-C1-C6=114.75                C3-C2-C1=125.93                
H8-C2-C1=119.31                H8-C2-C3=114.76                C4-C3-C2=110.56                H9-C3-C2=111.51                
H9-C3-C4=107.45                H10-C3-C2=111.07               H10-C3-C4=106.86               H10-C3-H9=109.21               
C5-C4-C3=108.34                H11-C4-C3=106.91               H11-C4-C5=111.88               H12-C4-C3=106.83               
H12-C4-C5=112.43               H12-C4-H11=110.16              C6-C5-C4=108.10                H13-C5-C4=112.46               
H13-C5-C6=106.92               H14-C5-C4=111.88               H14-C5-C6=107.01               H14-C5-H13=110.18              
C5-C6-C1=110.63                H15-C6-C1=111.49               H15-C6-C5=107.29               H16-C6-C1=111.09               
H16-C6-C5=106.94               H16-C6-H15=109.22              

 selected dihedral angles (degree)
 ---------------------------------
C3-C2-C1-C6=  0.43            C3-C2-C1-H7=179.61            H8-C2-C1-C6=179.57            H8-C2-C1-H7=358.75            
C4-C3-C2-C1=345.14            C4-C3-C2-H8=165.97            H9-C3-C2-C1=225.67            H9-C3-C2-H8= 46.50            
H10-C3-C2-C1=103.60           H10-C3-C2-H8=284.43           C5-C4-C3-C2= 47.35            C5-C4-C3-H9=169.24            
C5-C4-C3-H10=286.35           H11-C4-C3-C2=286.61           H11-C4-C3-H9= 48.50           H11-C4-C3-H10=165.62          
H12-C4-C3-C2=168.70           H12-C4-C3-H9=290.59           H12-C4-C3-H10= 47.70          C6-C5-C4-C3=298.49            
C6-C5-C4-H11= 56.09           C6-C5-C4-H12=180.66           H13-C5-C4-C3=180.68           H13-C5-C4-H11=298.28          
H13-C5-C4-H12= 62.86          H14-C5-C4-C3= 56.06           H14-C5-C4-H11=173.66          H14-C5-C4-H12=298.24          
C5-C6-C1-C2=344.87            C5-C6-C1-H7=165.65            H15-C6-C1-C2=225.55           H15-C6-C1-H7= 46.34           
H16-C6-C1-C2=103.47           H16-C6-C1-H7=284.26           C1-C6-C5-C4= 47.49            C1-C6-C5-H13=168.79           
C1-C6-C5-H14=286.83           H15-C6-C5-C4=169.31           H15-C6-C5-H13=290.61          H15-C6-C5-H14= 48.65          
H16-C6-C5-C4=286.39           H16-C6-C5-H13= 47.69          H16-C6-C5-H14=165.73          
           -------------------------------------------------
          |                Final Singlepoint                |
           -------------------------------------------------

          ...................................................
          :                      SETUP                      :
          :.................................................:
          :  # basis functions                  34          :
          :  # atomic orbitals                  34          :
          :  # shells                           22          :
          :  # electrons                        34          :
          :  max. iterations                   250          :
          :  Hamiltonian                  GFN2-xTB          :
          :  restarted?                      false          :
          :  GBSA solvation                  false          :
          :  PC potential                    false          :
          :  electronic temp.          300.0000000     K    :
          :  accuracy                    1.0000000          :
          :  -> integral cutoff          0.2500000E+02      :
          :  -> integral neglect         0.1000000E-07      :
          :  -> SCF convergence          0.1000000E-05 Eh   :
          :  -> wf. convergence          0.1000000E-03 e    :
          :  Broyden damping             0.4000000          :
          ...................................................

 iter      E             dE          RMSdq      gap      omega  full diag
   1    -18.1874269 -0.181874E+02  0.517E-05    5.18       0.0  T
   2    -18.1874269 -0.793676E-11  0.323E-05    5.18     774.3  T
   3    -18.1874269 -0.493472E-11  0.199E-05    5.18    1258.5  T

   *** convergence criteria satisfied after 3 iterations ***

         #    Occupation            Energy/Eh            Energy/eV
      -------------------------------------------------------------
         1        2.0000           -0.6199459             -16.8696
       ...           ...                  ...                  ...
        11        2.0000           -0.4675908             -12.7238
        12        2.0000           -0.4645913             -12.6422
        13        2.0000           -0.4486011             -12.2071
        14        2.0000           -0.4348785             -11.8336
        15        2.0000           -0.4125427             -11.2259
        16        2.0000           -0.4011630             -10.9162
        17        2.0000           -0.3799351             -10.3386 (HOMO)
        18                         -0.1894482              -5.1551 (LUMO)
        19                         -0.0590497              -1.6068
        20                         -0.0373759              -1.0170
        21                          0.1181297               3.2145
        22                          0.1291205               3.5135
       ...                                ...                  ...
        34                          0.6419651              17.4688
      -------------------------------------------------------------
                  HL-Gap            0.1904869 Eh            5.1834 eV
             Fermi-level           -0.2846917 Eh           -7.7469 eV

 SCC (total)                   0 d,  0 h,  0 min,  0.005 sec
 SCC setup                      ...        0 min,  0.000 sec (  2.142%)
 Dispersion                     ...        0 min,  0.000 sec (  0.996%)
 classical contributions        ...        0 min,  0.000 sec (  0.430%)
 integral evaluation            ...        0 min,  0.001 sec ( 20.027%)
 iterations                     ...        0 min,  0.001 sec ( 18.652%)
 molecular gradient             ...        0 min,  0.003 sec ( 53.660%)
 printout                       ...        0 min,  0.000 sec (  3.818%)

         :::::::::::::::::::::::::::::::::::::::::::::::::::::
         ::                     SUMMARY                     ::
         :::::::::::::::::::::::::::::::::::::::::::::::::::::
         :: total energy             -17.903156554637 Eh    ::
         :: gradient norm              0.000937443440 Eh/a0 ::
         :: HOMO-LUMO gap              5.183412226417 eV    ::
         ::.................................................::
         :: SCC energy               -18.187426941781 Eh    ::
         :: -> isotropic ES            0.002512137423 Eh    ::
         :: -> anisotropic ES          0.005707969183 Eh    ::
         :: -> anisotropic XC          0.012357108196 Eh    ::
         :: -> dispersion             -0.009896824800 Eh    ::
         :: repulsion energy           0.283186581558 Eh    ::
         :: add. restraining           0.001060814522 Eh    ::
         :: total charge              -0.000000000000 e     ::
         :::::::::::::::::::::::::::::::::::::::::::::::::::::

           -------------------------------------------------
          |                Property Printout                |
           -------------------------------------------------

    * Orbital Energies and Occupations

         #    Occupation            Energy/Eh            Energy/eV
      -------------------------------------------------------------
         1        2.0000           -0.6199459             -16.8696
       ...           ...                  ...                  ...
         5        2.0000           -0.5571301             -15.1603
         6        2.0000           -0.5232616             -14.2387
         7        2.0000           -0.5140730             -13.9886
         8        2.0000           -0.4929926             -13.4150
         9        2.0000           -0.4820539             -13.1174
        10        2.0000           -0.4689423             -12.7606
        11        2.0000           -0.4675908             -12.7238
        12        2.0000           -0.4645913             -12.6422
        13        2.0000           -0.4486011             -12.2071
        14        2.0000           -0.4348785             -11.8336
        15        2.0000           -0.4125427             -11.2259
        16        2.0000           -0.4011630             -10.9162
        17        2.0000           -0.3799351             -10.3386 (HOMO)
        18                         -0.1894482              -5.1551 (LUMO)
        19                         -0.0590497              -1.6068
        20                         -0.0373759              -1.0170
        21                          0.1181297               3.2145
        22                          0.1291205               3.5135
        23                          0.1531755               4.1681
        24                          0.1560459               4.2462
        25                          0.1700659               4.6277
        26                          0.1881729               5.1204
        27                          0.2241006               6.0981
        28                          0.2273032               6.1852
       ...                                ...                  ...
        34                          0.6419651              17.4688
      -------------------------------------------------------------
                  HL-Gap            0.1904869 Eh            5.1834 eV
             Fermi-level           -0.2846917 Eh           -7.7469 eV

     #   Z          covCN         q      C6AA      α(0)
     1   6 C        2.888    -0.038    28.946     8.821
     2   6 C        2.888    -0.038    28.946     8.821
     3   6 C        3.747    -0.062    21.769     6.655
     4   6 C        3.743    -0.059    21.712     6.647
     5   6 C        3.743    -0.059    21.712     6.647
     6   6 C        3.747    -0.062    21.769     6.655
     7   1 H        0.925     0.022     2.700     2.569
     8   1 H        0.925     0.022     2.701     2.570
     9   1 H        0.925     0.035     2.517     2.481
    10   1 H        0.925     0.039     2.456     2.451
    11   1 H        0.925     0.035     2.517     2.481
    12   1 H        0.925     0.028     2.615     2.529
    13   1 H        0.925     0.028     2.612     2.528
    14   1 H        0.925     0.035     2.517     2.481
    15   1 H        0.925     0.035     2.518     2.481
    16   1 H        0.925     0.040     2.455     2.450

 Mol. C6AA /au·bohr⁶  :       2055.893175
 Mol. C8AA /au·bohr⁸  :      45571.085252
 Mol. α(0) /au        :         69.267428


Wiberg/Mayer (AO) data.
largest (>0.10) Wiberg bond orders for each atom

 ---------------------------------------------------------------------------
     #   Z sym  total        # sym  WBO       # sym  WBO       # sym  WBO
 ---------------------------------------------------------------------------
     1   6 C    3.991 --     2 C    1.922     6 C    1.039     7 H    0.963
     2   6 C    3.991 --     1 C    1.922     3 C    1.039     8 H    0.963
     3   6 C    3.996 --     2 C    1.039     9 H    0.973     4 C    0.970
                            10 H    0.965
     4   6 C    3.996 --     5 C    1.037    11 H    0.983    12 H    0.979
                             3 C    0.970
     5   6 C    3.996 --     4 C    1.037    14 H    0.983    13 H    0.979
                             6 C    0.970
     6   6 C    3.996 --     1 C    1.039    15 H    0.973     5 C    0.970
                            16 H    0.965
     7   1 H    1.000 --     1 C    0.963
     8   1 H    1.000 --     2 C    0.963
     9   1 H    0.999 --     3 C    0.973
    10   1 H    0.998 --     3 C    0.965
    11   1 H    0.999 --     4 C    0.983
    12   1 H    0.999 --     4 C    0.979
    13   1 H    0.999 --     5 C    0.979
    14   1 H    0.999 --     5 C    0.983
    15   1 H    0.999 --     6 C    0.973
    16   1 H    0.998 --     6 C    0.965
 ---------------------------------------------------------------------------

Topologies differ in total number of bonds
Writing topology from bond orders to xtbtopo.mol

molecular dipole:
                 x           y           z       tot (Debye)
 q only:        0.019       0.109       0.018
   full:        0.020       0.115       0.019       0.301
molecular quadrupole (traceless):
                xx          xy          yy          xz          yz          zz
 q only:        0.774      -0.199      -0.357      -0.022       0.009      -0.418
  q+dip:        1.514      -0.390      -0.392       0.280       0.065      -1.122
   full:        1.040      -0.291      -0.404       0.181       0.000      -0.636

           -------------------------------------------------
          |                Geometry Summary                 |
           -------------------------------------------------

      molecular mass/u    :       82.1438229
   center of mass at/Å    :       -0.0204032      -0.1183770      -0.0191342
  moments of inertia/u·Å² :        0.1132244E+03   0.1154279E+03   0.2069236E+03
rotational constants/cm⁻¹ :        0.1488870E+00   0.1460447E+00   0.8146792E-01

 * 12 selected distances

     #   Z          #   Z                                           value/Å
     1   6 C        2   6 C                                       1.3234285
     4   6 C        5   6 C                                       1.5004180 (max)
     1   6 C        7   1 H                                       1.0837483
     2   6 C        8   1 H                                       1.0837062 (min)
     3   6 C        9   1 H                                       1.0877924
     3   6 C       10   1 H                                       1.0893456
     4   6 C       11   1 H                                       1.0862361
     4   6 C       12   1 H                                       1.0873676
     5   6 C       13   1 H                                       1.0874396
     5   6 C       14   1 H                                       1.0862350
     6   6 C       15   1 H                                       1.0876403
     6   6 C       16   1 H                                       1.0893860

 * 2 distinct bonds (by element types)

   Z      Z             #   av. dist./Å        max./Å        min./Å
   1 H    6 C          10     1.0868897     1.0893860     1.0837062
   6 C    6 C           2     1.4119233     1.5004180     1.3234285


optimized geometry written to: xtbopt.xyz


           -------------------------------------------------
          | TOTAL ENERGY              -17.903156554637 Eh   |
          | GRADIENT NORM               0.000937443440 Eh/α |
          | HOMO-LUMO GAP               5.183412226417 eV   |
           -------------------------------------------------

------------------------------------------------------------------------
 * finished run on 2025/05/23 at 11:18:28.115     
------------------------------------------------------------------------
 total:
 * wall-time:     0 d,  0 h,  0 min,  0.211 sec
 *  cpu-time:     0 d,  0 h,  0 min,  0.211 sec
 * ratio c/w:     1.000 speedup
 SCF:
 * wall-time:     0 d,  0 h,  0 min,  0.009 sec
 *  cpu-time:     0 d,  0 h,  0 min,  0.009 sec
 * ratio c/w:     0.998 speedup
 ANC optimizer:
 * wall-time:     0 d,  0 h,  0 min,  0.194 sec
 *  cpu-time:     0 d,  0 h,  0 min,  0.194 sec
 * ratio c/w:     1.000 speedup

