      -----------------------------------------------------------      
     |                   =====================                   |     
     |                           x T B                           |     
     |                   =====================                   |     
     |                         S. Grimme                         |     
     |          Mulliken Center for Theoretical Chemistry        |     
     |                    University of Bonn                     |     
      -----------------------------------------------------------      

   * xtb version 6.6.1 (8d0f1dd) compiled by 'conda@1efc2f54142f' on 2023-08-01

   xtb is free software: you can redistribute it and/or modify it under
   the terms of the GNU Lesser General Public License as published by
   the Free Software Foundation, either version 3 of the License, or
   (at your option) any later version.
   
   xtb is distributed in the hope that it will be useful,
   but WITHOUT ANY WARRANTY; without even the implied warranty of
   MERCHANTABILITY or FITNESS FOR A PARTICULAR PURPOSE.  See the
   GNU Lesser General Public License for more details.
   
   Cite this work as:
   * C. Bannwarth, E. Caldeweyher, S. Ehlert, A. Hansen, P. Pracht,
     J. Seibert, S. Spicher, S. Grimme, WIREs Comput. Mol. Sci., 2020, 11,
     e01493. DOI: 10.1002/wcms.1493
   
   for GFN2-xTB:
   * C. Bannwarth, S. Ehlert and S. Grimme., J. Chem. Theory Comput., 2019,
     15, 1652-1671. DOI: 10.1021/acs.jctc.8b01176
   for GFN1-xTB:
   * S. Grimme, C. Bannwarth, P. Shushkov, J. Chem. Theory Comput., 2017,
     13, 1989-2009. DOI: 10.1021/acs.jctc.7b00118
   for GFN0-xTB:
   * P. Pracht, E. Caldeweyher, S. Ehlert, S. Grimme, ChemRxiv, 2019, preprint.
     DOI: 10.26434/chemrxiv.8326202.v1
   for GFN-FF:
   * S. Spicher and S. Grimme, Angew. Chem. Int. Ed., 2020, 59, 15665-15673.
     DOI: 10.1002/anie.202004239
   
   for ALPB and GBSA implicit solvation:
   * S. Ehlert, M. Stahn, S. Spicher, S. Grimme, J. Chem. Theory Comput.,
     2021, 17, 4250-4261. DOI: 10.1021/acs.jctc.1c00471
   
   for DFT-D4:
   * E. Caldeweyher, C. Bannwarth and S. Grimme, J. Chem. Phys., 2017,
     147, 034112. DOI: 10.1063/1.4993215
   * E. Caldeweyher, S. Ehlert, A. Hansen, H. Neugebauer, S. Spicher,
     C. Bannwarth and S. Grimme, J. Chem. Phys., 2019, 150, 154122.
     DOI: 10.1063/1.5090222
   * E. Caldeweyher, J.-M. Mewes, S. Ehlert and S. Grimme, Phys. Chem. Chem. Phys.
     2020, 22, 8499-8512. DOI: 10.1039/D0CP00502A
   
   for sTDA-xTB:
   * S. Grimme and C. Bannwarth, J. Chem. Phys., 2016, 145, 054103.
     DOI: 10.1063/1.4959605
   
   in the mass-spec context:
   * V. Asgeirsson, C. Bauer and S. Grimme, Chem. Sci., 2017, 8, 4879.
     DOI: 10.1039/c7sc00601b
   * J. Koopman and S. Grimme, ACS Omega 2019, 4, 12, 15120-15133.
     DOI: 10.1021/acsomega.9b02011
   
   for metadynamics refer to:
   * S. Grimme, J. Chem. Theory Comput., 2019, 155, 2847-2862
     DOI: 10.1021/acs.jctc.9b00143
   
   for SPH calculations refer to:
   * S. Spicher and S. Grimme, J. Chem. Theory Comput., 2021, 17, 1701-1714
     DOI: 10.1021/acs.jctc.0c01306
   
   with help from (in alphabetical order)
   P. Atkinson, C. Bannwarth, F. Bohle, G. Brandenburg, E. Caldeweyher
   M. Checinski, S. Dohm, S. Ehlert, S. Ehrlich, I. Gerasimov, C. Hölzer
   A. Katbashev, J. Koopman, C. Lavigne, S. Lehtola, F. März, M. Müller,
   F. Musil, H. Neugebauer, J. Pisarek, C. Plett, P. Pracht, F. Pultar,
   J. Seibert, P. Shushkov, S. Spicher, M. Stahn, M. Steiner, T. Strunk,
   J. Stückrath, T. Rose, and J. Unsleber
   
 * started run on 2025/05/23 at 11:18:29.992     

           -------------------------------------------------
          |                Calculation Setup                |
           -------------------------------------------------

          program call               : /home/avcopan/code/other/saddle-search-practice/.pixi/envs/default/bin/xtb path_opt5_xtb.xyz --chrg 0 --uhf 0 --opt --input xcontrol_path_opt5_xtb
          coordinate file            : path_opt5_xtb.xyz
          omp threads                :                     1

   ID    Z sym.   atoms
    1    6 C      1-6
    2    1 H      7-16
constraining bond 3 4 to    1.9261000 Å, actual value:    1.8761316 Å
constraining bond 5 6 to    1.9262000 Å, actual value:    1.8762194 Å

           -------------------------------------------------
          |                 G F N 2 - x T B                 |
           -------------------------------------------------

        Reference                      10.1021/acs.jctc.8b01176
      * Hamiltonian:
        H0-scaling (s, p, d)           1.850000    2.230000    2.230000
        zeta-weighting                 0.500000
      * Dispersion:
        s8                             2.700000
        a1                             0.520000
        a2                             5.000000
        s9                             5.000000
      * Repulsion:
        kExp                           1.500000    1.000000
        rExp                           1.000000
      * Coulomb:
        alpha                          2.000000
        third order                    shell-resolved
        anisotropic                    true
        a3                             3.000000
        a5                             4.000000
        cn-shift                       1.200000
        cn-exp                         4.000000
        max-rad                        5.000000


          ...................................................
          :                      SETUP                      :
          :.................................................:
          :  # basis functions                  34          :
          :  # atomic orbitals                  34          :
          :  # shells                           22          :
          :  # electrons                        34          :
          :  max. iterations                   250          :
          :  Hamiltonian                  GFN2-xTB          :
          :  restarted?                      false          :
          :  GBSA solvation                  false          :
          :  PC potential                    false          :
          :  electronic temp.          300.0000000     K    :
          :  accuracy                    1.0000000          :
          :  -> integral cutoff          0.2500000E+02      :
          :  -> integral neglect         0.1000000E-07      :
          :  -> SCF convergence          0.1000000E-05 Eh   :
          :  -> wf. convergence          0.1000000E-03 e    :
          :  Broyden damping             0.4000000          :
          ...................................................

 iter      E             dE          RMSdq      gap      omega  full diag
   1    -18.1137750 -0.181138E+02  0.327E+00    5.12       0.0  T
   2    -18.1413067 -0.275316E-01  0.184E+00    5.05       1.0  T
   3    -18.1413280 -0.212656E-04  0.686E-01    5.00       1.0  T
   4    -18.1410523  0.275708E-03  0.298E-01    5.01       1.0  T
   5    -18.1423432 -0.129096E-02  0.568E-02    5.01       1.0  T
   6    -18.1423448 -0.155445E-05  0.159E-02    5.01       1.6  T
   7    -18.1423449 -0.156584E-06  0.226E-03    5.01      11.1  T
   8    -18.1423449 -0.396283E-08  0.540E-04    5.01      46.3  T
   9    -18.1423449 -0.133101E-08  0.282E-04    5.01      88.7  T

   *** convergence criteria satisfied after 9 iterations ***

         #    Occupation            Energy/Eh            Energy/eV
      -------------------------------------------------------------
         1        2.0000           -0.6155435             -16.7498
       ...           ...                  ...                  ...
        11        2.0000           -0.4683286             -12.7439
        12        2.0000           -0.4625641             -12.5870
        13        2.0000           -0.4417776             -12.0214
        14        2.0000           -0.4395516             -11.9608
        15        2.0000           -0.4039633             -10.9924
        16        2.0000           -0.3912701             -10.6470
        17        2.0000           -0.3773301             -10.2677 (HOMO)
        18                         -0.1933050              -5.2601 (LUMO)
        19                         -0.1428966              -3.8884
        20                         -0.1196418              -3.2556
        21                          0.1163852               3.1670
        22                          0.1336038               3.6355
       ...                                ...                  ...
        34                          0.6448585              17.5475
      -------------------------------------------------------------
                  HL-Gap            0.1840251 Eh            5.0076 eV
             Fermi-level           -0.2853176 Eh           -7.7639 eV

 SCC (total)                   0 d,  0 h,  0 min,  0.008 sec
 SCC setup                      ...        0 min,  0.000 sec (  1.609%)
 Dispersion                     ...        0 min,  0.000 sec (  1.031%)
 classical contributions        ...        0 min,  0.000 sec (  0.373%)
 integral evaluation            ...        0 min,  0.001 sec ( 13.048%)
 iterations                     ...        0 min,  0.003 sec ( 40.657%)
 molecular gradient             ...        0 min,  0.003 sec ( 37.866%)
 printout                       ...        0 min,  0.000 sec (  5.229%)

         :::::::::::::::::::::::::::::::::::::::::::::::::::::
         ::                     SUMMARY                     ::
         :::::::::::::::::::::::::::::::::::::::::::::::::::::
         :: total energy             -17.822528826229 Eh    ::
         :: gradient norm              0.587948805478 Eh/a0 ::
         :: HOMO-LUMO gap              5.007578818623 eV    ::
         ::.................................................::
         :: SCC energy               -18.142344926777 Eh    ::
         :: -> isotropic ES            0.002529381665 Eh    ::
         :: -> anisotropic ES          0.006775515908 Eh    ::
         :: -> anisotropic XC          0.012915165455 Eh    ::
         :: -> dispersion             -0.009890165208 Eh    ::
         :: repulsion energy           0.284115932744 Eh    ::
         :: add. restraining           0.035674261228 Eh    ::
         :: total charge               0.000000000000 e     ::
         :::::::::::::::::::::::::::::::::::::::::::::::::::::

      ----------------------------------------------------------- 
     |                   =====================                   |
     |                        A N C O P T                        |
     |                   =====================                   |
     |               Approximate Normal Coordinate               |
     |                Rational Function Optimizer                |
      ----------------------------------------------------------- 

          ...................................................
          :                      SETUP                      :
          :.................................................:
          :   optimization level            normal          :
          :   max. optcycles                   200          :
          :   ANC micro-cycles                  20          :
          :   degrees of freedom                42          :
          :.................................................:
          :   RF solver                   davidson          :
          :   write xtbopt.log                true          :
          :   linear?                        false          :
          :   energy convergence         0.5000000E-05 Eh   :
          :   grad. convergence          0.1000000E-02 Eh/α :
          :   maxmium RF displ.          1.0000000          :
          :   Hlow (freq-cutoff)         0.1000000E-01      :
          :   Hmax (freq-cutoff)         5.0000000          :
          :   S6 in model hess.         20.0000000          :
          ...................................................

generating ANC from model Hessian ...
Using Lindh-Hessian (1995)
 Shifting diagonal of input Hessian by    6.6192278259114182E-002
 Lowest  eigenvalues of input Hessian
    0.010000    0.023222    0.035936    0.062266    0.000000    0.000000
    0.000000    0.000000    0.000000    0.000000    0.075834    0.078730
    0.081139    0.088515    0.090991    0.095205    0.098363    0.099708
 Highest eigenvalues
    1.230901    1.298664    1.545168    1.994794    8.547774    8.559120


........................................................................
.............................. CYCLE    1 ..............................
........................................................................

 iter      E             dE          RMSdq      gap      omega  full diag
   1    -18.1423449 -0.181423E+02  0.104E-04    5.01       0.0  T
   2    -18.1423449 -0.577316E-11  0.615E-05    5.01     406.5  T
   3    -18.1423449  0.678924E-11  0.457E-05    5.01     546.9  T
     SCC iter.                  ...        0 min,  0.001 sec
     gradient                   ...        0 min,  0.004 sec
 * total energy  :   -17.8225288 Eh     change       -0.7043397E-09 Eh
   gradient norm :     0.5879489 Eh/α   predicted     0.0000000E+00 (-100.00%)
   displ. norm   :     0.1248763 α      lambda       -0.6880068E-01
   maximum displ.:     0.1159407 α      in ANC's #41, #27, #11, ...

........................................................................
.............................. CYCLE    2 ..............................
........................................................................

 iter      E             dE          RMSdq      gap      omega  full diag
   1    -18.1292297 -0.181292E+02  0.119E-01    4.79       0.0  T
   2    -18.1292438 -0.141234E-04  0.707E-02    4.79       1.0  T
   3    -18.1292437  0.105382E-06  0.151E-02    4.79       1.7  T
   4    -18.1292439 -0.178034E-06  0.416E-03    4.79       6.0  T
   5    -18.1292442 -0.247900E-06  0.124E-03    4.79      20.1  T
   6    -18.1292442 -0.756069E-08  0.506E-04    4.79      49.4  T
   7    -18.1292442 -0.512443E-10  0.703E-05    4.79     355.6  T
     SCC iter.                  ...        0 min,  0.003 sec
     gradient                   ...        0 min,  0.004 sec
 * total energy  :   -17.8360867 Eh     change       -0.1355784E-01 Eh
   gradient norm :     0.3578692 Eh/α   predicted    -0.3493679E-01 ( 157.69%)
   displ. norm   :     0.0453847 α      lambda       -0.1573624E-01
   maximum displ.:     0.0438603 α      in ANC's #41, #9, #2, ...

........................................................................
.............................. CYCLE    3 ..............................
........................................................................

 iter      E             dE          RMSdq      gap      omega  full diag
   1    -18.1320849 -0.181321E+02  0.642E-02    4.89       0.0  T
   2    -18.1320886 -0.365287E-05  0.369E-02    4.89       1.0  T
   3    -18.1320885  0.364587E-07  0.801E-03    4.89       3.1  T
   4    -18.1320886 -0.544539E-07  0.186E-03    4.89      13.5  T
   5    -18.1320887 -0.531201E-07  0.421E-04    4.89      59.4  T
   6    -18.1320887 -0.120427E-08  0.186E-04    4.89     134.3  T
     SCC iter.                  ...        0 min,  0.002 sec
     gradient                   ...        0 min,  0.003 sec
 * total energy  :   -17.8440081 Eh     change       -0.7921462E-02 Eh
   gradient norm :     0.0029943 Eh/α   predicted    -0.7884325E-02 (  -0.47%)
   displ. norm   :     0.0176078 α      lambda       -0.3080690E-04
   maximum displ.:     0.0089780 α      in ANC's #2, #11, #9, ...

........................................................................
.............................. CYCLE    4 ..............................
........................................................................

 iter      E             dE          RMSdq      gap      omega  full diag
   1    -18.1313241 -0.181313E+02  0.178E-02    4.90       0.0  T
   2    -18.1313241 -0.490309E-07  0.103E-02    4.90       2.4  T
   3    -18.1313241  0.519500E-07  0.209E-03    4.90      12.0  T
   4    -18.1313241 -0.589926E-07  0.529E-04    4.90      47.3  T
   5    -18.1313241 -0.336741E-08  0.137E-04    4.90     182.8  T
     SCC iter.                  ...        0 min,  0.002 sec
     gradient                   ...        0 min,  0.003 sec
 * total energy  :   -17.8440309 Eh     change       -0.2274877E-04 Eh
   gradient norm :     0.0014143 Eh/α   predicted    -0.1541056E-04 ( -32.26%)
   displ. norm   :     0.0374724 α      lambda       -0.2650188E-04
   maximum displ.:     0.0233315 α      in ANC's #9, #11, #17, ...

........................................................................
.............................. CYCLE    5 ..............................
........................................................................

 iter      E             dE          RMSdq      gap      omega  full diag
   1    -18.1295582 -0.181296E+02  0.426E-02    4.90       0.0  T
   2    -18.1295585 -0.324970E-06  0.247E-02    4.90       1.0  T
   3    -18.1295580  0.476717E-06  0.624E-03    4.90       4.0  T
   4    -18.1295585 -0.536243E-06  0.128E-03    4.90      19.5  T
   5    -18.1295586 -0.209055E-07  0.374E-04    4.90      66.9  T
   6    -18.1295586 -0.526338E-09  0.232E-04    4.90     107.7  T
     SCC iter.                  ...        0 min,  0.002 sec
     gradient                   ...        0 min,  0.003 sec
 * total energy  :   -17.8440268 Eh     change        0.4112400E-05 Eh
   gradient norm :     0.0031928 Eh/α   predicted    -0.1325783E-04 (-422.39%)
   displ. norm   :     0.0322752 α      lambda       -0.3461054E-04
   maximum displ.:     0.0275946 α      in ANC's #1, #2, #9, ...

........................................................................
.............................. CYCLE    6 ..............................
........................................................................

 iter      E             dE          RMSdq      gap      omega  full diag
   1    -18.1296589 -0.181297E+02  0.386E-02    4.90       0.0  T
   2    -18.1296590 -0.792362E-07  0.229E-02    4.90       1.1  T
   3    -18.1296584  0.572121E-06  0.643E-03    4.90       3.9  T
   4    -18.1296591 -0.624366E-06  0.738E-04    4.90      33.9  T
   5    -18.1296591 -0.481734E-08  0.307E-04    4.90      81.5  T
     SCC iter.                  ...        0 min,  0.001 sec
     gradient                   ...        0 min,  0.003 sec
 * total energy  :   -17.8440287 Eh     change       -0.1954542E-05 Eh
   gradient norm :     0.0025923 Eh/α   predicted    -0.1732256E-04 ( 786.27%)
   displ. norm   :     0.0369836 α      lambda       -0.5136783E-04
   maximum displ.:     0.0258059 α      in ANC's #1, #2, #9, ...

........................................................................
.............................. CYCLE    7 ..............................
........................................................................

 iter      E             dE          RMSdq      gap      omega  full diag
   1    -18.1309740 -0.181310E+02  0.466E-02    4.90       0.0  T
   2    -18.1309742 -0.218069E-06  0.274E-02    4.90       1.0  T
   3    -18.1309733  0.934204E-06  0.818E-03    4.90       3.1  T
   4    -18.1309743 -0.103556E-05  0.106E-03    4.90      23.6  T
   5    -18.1309743 -0.108663E-07  0.458E-04    4.90      54.6  T
   6    -18.1309743 -0.153378E-08  0.237E-04    4.90     105.6  T
     SCC iter.                  ...        0 min,  0.002 sec
     gradient                   ...        0 min,  0.003 sec
 * total energy  :   -17.8440265 Eh     change        0.2226983E-05 Eh
   gradient norm :     0.0039941 Eh/α   predicted    -0.2571822E-04 (*******%)
   displ. norm   :     0.0263381 α      lambda       -0.4593385E-04
   maximum displ.:     0.0243931 α      in ANC's #2, #1, #6, ...

........................................................................
.............................. CYCLE    8 ..............................
........................................................................

 iter      E             dE          RMSdq      gap      omega  full diag
   1    -18.1308781 -0.181309E+02  0.337E-02    4.90       0.0  T
   2    -18.1308782 -0.222805E-07  0.199E-02    4.90       1.3  T
   3    -18.1308779  0.206248E-06  0.372E-03    4.90       6.7  T
   4    -18.1308782 -0.230317E-06  0.356E-04    4.90      70.2  T
   5    -18.1308782 -0.177870E-09  0.233E-04    4.90     107.1  T
     SCC iter.                  ...        0 min,  0.002 sec
     gradient                   ...        0 min,  0.003 sec
 * total energy  :   -17.8440452 Eh     change       -0.1873534E-04 Eh
   gradient norm :     0.0007705 Eh/α   predicted    -0.2298203E-04 (  22.67%)
   displ. norm   :     0.0200269 α      lambda       -0.5390411E-05
   maximum displ.:     0.0145356 α      in ANC's #2, #9, #11, ...

........................................................................
.............................. CYCLE    9 ..............................
........................................................................

 iter      E             dE          RMSdq      gap      omega  full diag
   1    -18.1303813 -0.181304E+02  0.157E-02    4.90       0.0  T
   2    -18.1303813 -0.281398E-07  0.914E-03    4.90       2.7  T
   3    -18.1303813  0.107181E-07  0.109E-03    4.90      23.0  T
   4    -18.1303813 -0.102430E-07  0.552E-04    4.90      45.3  T
   5    -18.1303813 -0.413451E-08  0.129E-04    4.90     194.0  T
     SCC iter.                  ...        0 min,  0.001 sec
     gradient                   ...        0 min,  0.003 sec
 * total energy  :   -17.8440474 Eh     change       -0.2190505E-05 Eh
   gradient norm :     0.0008491 Eh/α   predicted    -0.2693897E-05 (  22.98%)
   displ. norm   :     0.0065416 α      lambda       -0.2226512E-05
   maximum displ.:     0.0027740 α      in ANC's #1, #6, #15, ...

   *** GEOMETRY OPTIMIZATION CONVERGED AFTER 9 ITERATIONS ***

------------------------------------------------------------------------
 total energy gain   :        -0.0215186 Eh      -13.5031 kcal/mol
 total RMSD          :         0.0310757 a0        0.0164 Å
 total power (kW/mol):        -6.2774501 (step) -907.8728 (real)
------------------------------------------------------------------------

 ANCopt (total)                0 d,  0 h,  0 min,  0.062 sec
 optimizer setup                ...        0 min,  0.000 sec (  0.237%)
 model hessian                  ...        0 min,  0.005 sec (  7.685%)
 ANC generation                 ...        0 min,  0.000 sec (  0.457%)
 coordinate transformation      ...        0 min,  0.000 sec (  0.077%)
 single point calculation       ...        0 min,  0.055 sec ( 87.940%)
 optimization log               ...        0 min,  0.001 sec (  1.278%)
 hessian update                 ...        0 min,  0.000 sec (  0.101%)
 rational function              ...        0 min,  0.001 sec (  1.436%)

================
 final structure:
================
16
 xtb: 6.6.1 (8d0f1dd)
C           -0.89801444347033       -1.31517125427536       -0.19560658416391
C            0.40785745138256       -1.52907746040670       -0.26317449044598
C            1.49828947115635       -0.54448301311152       -0.11608736121401
C            0.81038218898393        1.23834847888616       -0.23940544412451
C           -0.37299613546222        1.29779587256515        0.64924848076163
C           -1.59834256718117       -0.03358758763015        0.02217869120922
H           -1.56546693315670       -2.16217913521678       -0.32452029326903
H            0.75499485900789       -2.54398001077760       -0.43363938481991
H            2.23651059780373       -0.60617639656021       -0.90771091622983
H            1.96908314349710       -0.57573171772077        0.86145540373349
H            0.58257768167153        1.37528791040808       -1.28855059723012
H            1.64420043753367        1.85480842127401        0.08000695291104
H           -0.94227408585271        2.21895493253457        0.58004283144910
H           -0.16941254584789        1.02319990260432        1.67627950861566
H           -2.35885794421637       -0.08982754983498        0.79261556102122
H           -1.99844117584937        0.39173860726179       -0.89292235820406

 Bond Distances (Angstroems)
 ---------------------------
C1-C2=1.3250         C1-C6=1.4766         C1-H7=1.0861         C2-C1=1.3250         C2-C3=1.4765         C2-H8=1.0861         
C3-C2=1.4765         C3-C4=1.9149         C3-H9=1.0842         C3-H10=1.0855        C4-C3=1.9149         C4-C5=1.4811         
C4-H11=1.0823        C4-H12=1.0850        C5-C4=1.4811         C5-C6=1.9150         C5-H13=1.0851        C5-H14=1.0824        
C6-C1=1.4766         C6-C5=1.9150         C6-H15=1.0840        C6-H16=1.0855        H7-C1=1.0861         H8-C2=1.0861         
H9-C3=1.0842         H10-C3=1.0855        H11-C4=1.0823        H12-C4=1.0850        H13-C5=1.0851        H14-C5=1.0824        
H15-C6=1.0840        H16-C6=1.0855        
 C  H  Rav=1.0846 sigma=0.0013  Rmin=1.0823  Rmax=1.0861    10
 C  C  Rav=1.5982 sigma=0.2304  Rmin=1.3250  Rmax=1.9150     6

 selected bond angles (degree)
 --------------------
C6-C1-C2=127.96                H7-C1-C2=118.28                H7-C1-C6=113.76                C3-C2-C1=127.96                
H8-C2-C1=118.29                H8-C2-C3=113.75                C4-C3-C2=110.43                H9-C3-C2=113.09                
H9-C3-C4=104.51                H10-C3-C2=113.01               H10-C3-C4=103.92               H10-C3-H9=111.14               
C5-C4-C3=106.60                H11-C4-C3=104.82               H11-C4-C5=114.10               H12-C4-C3=103.53               
H12-C4-C5=114.49               H12-C4-H11=112.04              C6-C5-C4=106.67                H13-C5-C4=114.52               
H13-C5-C6=103.51               H14-C5-C4=114.13               H14-C5-C6=104.75               H14-C5-H13=112.00              
C5-C6-C1=110.38                H15-C6-C1=113.11               H15-C6-C5=104.61               H16-C6-C1=112.99               
H16-C6-C5=103.86               H16-C6-H15=111.15              

 selected dihedral angles (degree)
 ---------------------------------
C3-C2-C1-C6=  1.10            C3-C2-C1-H7=180.23            H8-C2-C1-C6=180.20            H8-C2-C1-H7=359.34            
C4-C3-C2-C1=345.67            C4-C3-C2-H8=166.52            H9-C3-C2-C1=228.95            H9-C3-C2-H8= 49.81            
H10-C3-C2-C1=101.59           H10-C3-C2-H8=282.45           C6-C5-C4-C3=301.40            C6-C5-C4-H11= 56.61           
C6-C5-C4-H12=187.57           H13-C5-C4-C3=187.53           H13-C5-C4-H11=302.74          H13-C5-C4-H12= 73.70          
H14-C5-C4-C3= 56.58           H14-C5-C4-H11=171.79          H14-C5-C4-H12=302.74          C5-C6-C1-C2=345.60            
C5-C6-C1-H7=166.43            H15-C6-C1-C2=228.78           H15-C6-C1-H7= 49.61           H16-C6-C1-C2=101.39           
H16-C6-C1-H7=282.22           
           -------------------------------------------------
          |                Final Singlepoint                |
           -------------------------------------------------

          ...................................................
          :                      SETUP                      :
          :.................................................:
          :  # basis functions                  34          :
          :  # atomic orbitals                  34          :
          :  # shells                           22          :
          :  # electrons                        34          :
          :  max. iterations                   250          :
          :  Hamiltonian                  GFN2-xTB          :
          :  restarted?                      false          :
          :  GBSA solvation                  false          :
          :  PC potential                    false          :
          :  electronic temp.          300.0000000     K    :
          :  accuracy                    1.0000000          :
          :  -> integral cutoff          0.2500000E+02      :
          :  -> integral neglect         0.1000000E-07      :
          :  -> SCF convergence          0.1000000E-05 Eh   :
          :  -> wf. convergence          0.1000000E-03 e    :
          :  Broyden damping             0.4000000          :
          ...................................................

 iter      E             dE          RMSdq      gap      omega  full diag
   1    -18.1303813 -0.181304E+02  0.596E-05    4.90       0.0  T
   2    -18.1303813 -0.143281E-10  0.412E-05    4.90     607.0  T
   3    -18.1303813 -0.165734E-10  0.170E-05    4.90    1469.9  T

   *** convergence criteria satisfied after 3 iterations ***

         #    Occupation            Energy/Eh            Energy/eV
      -------------------------------------------------------------
         1        2.0000           -0.6149115             -16.7326
       ...           ...                  ...                  ...
        11        2.0000           -0.4682152             -12.7408
        12        2.0000           -0.4620403             -12.5728
        13        2.0000           -0.4406681             -11.9912
        14        2.0000           -0.4403606             -11.9828
        15        2.0000           -0.4017000             -10.9308
        16        2.0000           -0.3890596             -10.5869
        17        2.0000           -0.3757239             -10.2240 (HOMO)
        18                         -0.1956595              -5.3242 (LUMO)
        19                         -0.1569640              -4.2712
        20                         -0.1343614              -3.6562
        21                          0.1159772               3.1559
        22                          0.1336182               3.6359
       ...                                ...                  ...
        34                          0.6453633              17.5612
      -------------------------------------------------------------
                  HL-Gap            0.1800644 Eh            4.8998 eV
             Fermi-level           -0.2856917 Eh           -7.7741 eV

 SCC (total)                   0 d,  0 h,  0 min,  0.005 sec
 SCC setup                      ...        0 min,  0.000 sec (  1.769%)
 Dispersion                     ...        0 min,  0.000 sec (  0.895%)
 classical contributions        ...        0 min,  0.000 sec (  0.383%)
 integral evaluation            ...        0 min,  0.001 sec ( 21.436%)
 iterations                     ...        0 min,  0.001 sec ( 17.291%)
 molecular gradient             ...        0 min,  0.003 sec ( 55.221%)
 printout                       ...        0 min,  0.000 sec (  2.738%)

         :::::::::::::::::::::::::::::::::::::::::::::::::::::
         ::                     SUMMARY                     ::
         :::::::::::::::::::::::::::::::::::::::::::::::::::::
         :: total energy             -17.844047416436 Eh    ::
         :: gradient norm              0.000848655873 Eh/a0 ::
         :: HOMO-LUMO gap              4.899800506022 eV    ::
         ::.................................................::
         :: SCC energy               -18.130381320701 Eh    ::
         :: -> isotropic ES            0.002531691840 Eh    ::
         :: -> anisotropic ES          0.007008078412 Eh    ::
         :: -> anisotropic XC          0.013046204669 Eh    ::
         :: -> dispersion             -0.010008613870 Eh    ::
         :: repulsion energy           0.284520123238 Eh    ::
         :: add. restraining           0.001786867551 Eh    ::
         :: total charge               0.000000000000 e     ::
         :::::::::::::::::::::::::::::::::::::::::::::::::::::

           -------------------------------------------------
          |                Property Printout                |
           -------------------------------------------------

    * Orbital Energies and Occupations

         #    Occupation            Energy/Eh            Energy/eV
      -------------------------------------------------------------
         1        2.0000           -0.6149115             -16.7326
       ...           ...                  ...                  ...
         5        2.0000           -0.5507850             -14.9876
         6        2.0000           -0.5196940             -14.1416
         7        2.0000           -0.5084493             -13.8356
         8        2.0000           -0.4916038             -13.3772
         9        2.0000           -0.4755747             -12.9410
        10        2.0000           -0.4720424             -12.8449
        11        2.0000           -0.4682152             -12.7408
        12        2.0000           -0.4620403             -12.5728
        13        2.0000           -0.4406681             -11.9912
        14        2.0000           -0.4403606             -11.9828
        15        2.0000           -0.4017000             -10.9308
        16        2.0000           -0.3890596             -10.5869
        17        2.0000           -0.3757239             -10.2240 (HOMO)
        18                         -0.1956595              -5.3242 (LUMO)
        19                         -0.1569640              -4.2712
        20                         -0.1343614              -3.6562
        21                          0.1159772               3.1559
        22                          0.1336182               3.6359
        23                          0.1563100               4.2534
        24                          0.1724575               4.6928
        25                          0.1929395               5.2502
        26                          0.2020411               5.4978
        27                          0.2207663               6.0074
        28                          0.2365608               6.4371
       ...                                ...                  ...
        34                          0.6453633              17.5612
      -------------------------------------------------------------
                  HL-Gap            0.1800644 Eh            4.8998 eV
             Fermi-level           -0.2856917 Eh           -7.7741 eV

     #   Z          covCN         q      C6AA      α(0)
     1   6 C        2.887    -0.036    28.901     8.814
     2   6 C        2.887    -0.036    28.901     8.814
     3   6 C        3.493    -0.068    23.642     7.234
     4   6 C        3.490    -0.062    23.571     7.231
     5   6 C        3.489    -0.062    23.574     7.232
     6   6 C        3.492    -0.068    23.646     7.235
     7   1 H        0.925     0.025     2.660     2.551
     8   1 H        0.925     0.025     2.660     2.550
     9   1 H        0.925     0.036     2.506     2.476
    10   1 H        0.925     0.040     2.449     2.447
    11   1 H        0.925     0.036     2.509     2.477
    12   1 H        0.925     0.030     2.583     2.513
    13   1 H        0.925     0.030     2.584     2.514
    14   1 H        0.925     0.035     2.510     2.477
    15   1 H        0.925     0.036     2.506     2.475
    16   1 H        0.925     0.040     2.449     2.447

 Mol. C6AA /au·bohr⁶  :       2123.813003
 Mol. C8AA /au·bohr⁸  :      47336.742195
 Mol. α(0) /au        :         71.486444


Wiberg/Mayer (AO) data.
largest (>0.10) Wiberg bond orders for each atom

 ---------------------------------------------------------------------------
     #   Z sym  total        # sym  WBO       # sym  WBO       # sym  WBO
 ---------------------------------------------------------------------------
     1   6 C    3.992 --     2 C    1.912     6 C    1.053     7 H    0.956
     2   6 C    3.992 --     1 C    1.912     3 C    1.053     8 H    0.956
     3   6 C    3.992 --     2 C    1.053     9 H    0.973    10 H    0.966
                             4 C    0.933
     4   6 C    3.993 --     5 C    1.064    11 H    0.984    12 H    0.974
                             3 C    0.933
     5   6 C    3.993 --     4 C    1.064    14 H    0.984    13 H    0.974
                             6 C    0.933
     6   6 C    3.992 --     1 C    1.053    15 H    0.973    16 H    0.966
                             5 C    0.933
     7   1 H    0.999 --     1 C    0.956
     8   1 H    0.999 --     2 C    0.956
     9   1 H    0.999 --     3 C    0.973
    10   1 H    0.998 --     3 C    0.966
    11   1 H    0.999 --     4 C    0.984
    12   1 H    0.999 --     4 C    0.974
    13   1 H    0.999 --     5 C    0.974
    14   1 H    0.999 --     5 C    0.984
    15   1 H    0.999 --     6 C    0.973
    16   1 H    0.998 --     6 C    0.966
 ---------------------------------------------------------------------------

Topologies differ in total number of bonds
Writing topology from bond orders to xtbtopo.mol

molecular dipole:
                 x           y           z       tot (Debye)
 q only:        0.015       0.083       0.013
   full:        0.015       0.087       0.014       0.227
molecular quadrupole (traceless):
                xx          xy          yy          xz          yz          zz
 q only:        0.717      -0.162      -0.239      -0.034       0.040      -0.478
  q+dip:        1.459      -0.307       0.001       0.328       0.170      -1.460
   full:        0.973      -0.222      -0.084       0.222       0.085      -0.888

           -------------------------------------------------
          |                Geometry Summary                 |
           -------------------------------------------------

      molecular mass/u    :       82.1438229
   center of mass at/Å    :       -0.0204690      -0.1187001      -0.0191311
  moments of inertia/u·Å² :        0.1163100E+03   0.1282056E+03   0.2219497E+03
rotational constants/cm⁻¹ :        0.1449370E+00   0.1314890E+00   0.7595249E-01

 * 12 selected distances

     #   Z          #   Z                                           value/Å
     1   6 C        2   6 C                                       1.3249993
     4   6 C        5   6 C                                       1.4810889 (max)
     1   6 C        7   1 H                                       1.0860636
     2   6 C        8   1 H                                       1.0860893
     3   6 C        9   1 H                                       1.0841792
     3   6 C       10   1 H                                       1.0854553
     4   6 C       11   1 H                                       1.0822907 (min)
     4   6 C       12   1 H                                       1.0850347
     5   6 C       13   1 H                                       1.0850811
     5   6 C       14   1 H                                       1.0824242
     6   6 C       15   1 H                                       1.0840294
     6   6 C       16   1 H                                       1.0855374

 * 2 distinct bonds (by element types)

   Z      Z             #   av. dist./Å        max./Å        min./Å
   1 H    6 C          10     1.0846185     1.0860893     1.0822907
   6 C    6 C           2     1.4030441     1.4810889     1.3249993


optimized geometry written to: xtbopt.xyz


           -------------------------------------------------
          | TOTAL ENERGY              -17.844047416436 Eh   |
          | GRADIENT NORM               0.000848655873 Eh/α |
          | HOMO-LUMO GAP               4.899800506022 eV   |
           -------------------------------------------------

------------------------------------------------------------------------
 * finished run on 2025/05/23 at 11:18:30.076     
------------------------------------------------------------------------
 total:
 * wall-time:     0 d,  0 h,  0 min,  0.085 sec
 *  cpu-time:     0 d,  0 h,  0 min,  0.085 sec
 * ratio c/w:     1.000 speedup
 SCF:
 * wall-time:     0 d,  0 h,  0 min,  0.009 sec
 *  cpu-time:     0 d,  0 h,  0 min,  0.009 sec
 * ratio c/w:     1.000 speedup
 ANC optimizer:
 * wall-time:     0 d,  0 h,  0 min,  0.069 sec
 *  cpu-time:     0 d,  0 h,  0 min,  0.069 sec
 * ratio c/w:     1.000 speedup

