      -----------------------------------------------------------      
     |                   =====================                   |     
     |                           x T B                           |     
     |                   =====================                   |     
     |                         S. Grimme                         |     
     |          Mulliken Center for Theoretical Chemistry        |     
     |                    University of Bonn                     |     
      -----------------------------------------------------------      

   * xtb version 6.6.1 (8d0f1dd) compiled by 'conda@1efc2f54142f' on 2023-08-01

   xtb is free software: you can redistribute it and/or modify it under
   the terms of the GNU Lesser General Public License as published by
   the Free Software Foundation, either version 3 of the License, or
   (at your option) any later version.
   
   xtb is distributed in the hope that it will be useful,
   but WITHOUT ANY WARRANTY; without even the implied warranty of
   MERCHANTABILITY or FITNESS FOR A PARTICULAR PURPOSE.  See the
   GNU Lesser General Public License for more details.
   
   Cite this work as:
   * C. Bannwarth, E. Caldeweyher, S. Ehlert, A. Hansen, P. Pracht,
     J. Seibert, S. Spicher, S. Grimme, WIREs Comput. Mol. Sci., 2020, 11,
     e01493. DOI: 10.1002/wcms.1493
   
   for GFN2-xTB:
   * C. Bannwarth, S. Ehlert and S. Grimme., J. Chem. Theory Comput., 2019,
     15, 1652-1671. DOI: 10.1021/acs.jctc.8b01176
   for GFN1-xTB:
   * S. Grimme, C. Bannwarth, P. Shushkov, J. Chem. Theory Comput., 2017,
     13, 1989-2009. DOI: 10.1021/acs.jctc.7b00118
   for GFN0-xTB:
   * P. Pracht, E. Caldeweyher, S. Ehlert, S. Grimme, ChemRxiv, 2019, preprint.
     DOI: 10.26434/chemrxiv.8326202.v1
   for GFN-FF:
   * S. Spicher and S. Grimme, Angew. Chem. Int. Ed., 2020, 59, 15665-15673.
     DOI: 10.1002/anie.202004239
   
   for ALPB and GBSA implicit solvation:
   * S. Ehlert, M. Stahn, S. Spicher, S. Grimme, J. Chem. Theory Comput.,
     2021, 17, 4250-4261. DOI: 10.1021/acs.jctc.1c00471
   
   for DFT-D4:
   * E. Caldeweyher, C. Bannwarth and S. Grimme, J. Chem. Phys., 2017,
     147, 034112. DOI: 10.1063/1.4993215
   * E. Caldeweyher, S. Ehlert, A. Hansen, H. Neugebauer, S. Spicher,
     C. Bannwarth and S. Grimme, J. Chem. Phys., 2019, 150, 154122.
     DOI: 10.1063/1.5090222
   * E. Caldeweyher, J.-M. Mewes, S. Ehlert and S. Grimme, Phys. Chem. Chem. Phys.
     2020, 22, 8499-8512. DOI: 10.1039/D0CP00502A
   
   for sTDA-xTB:
   * S. Grimme and C. Bannwarth, J. Chem. Phys., 2016, 145, 054103.
     DOI: 10.1063/1.4959605
   
   in the mass-spec context:
   * V. Asgeirsson, C. Bauer and S. Grimme, Chem. Sci., 2017, 8, 4879.
     DOI: 10.1039/c7sc00601b
   * J. Koopman and S. Grimme, ACS Omega 2019, 4, 12, 15120-15133.
     DOI: 10.1021/acsomega.9b02011
   
   for metadynamics refer to:
   * S. Grimme, J. Chem. Theory Comput., 2019, 155, 2847-2862
     DOI: 10.1021/acs.jctc.9b00143
   
   for SPH calculations refer to:
   * S. Spicher and S. Grimme, J. Chem. Theory Comput., 2021, 17, 1701-1714
     DOI: 10.1021/acs.jctc.0c01306
   
   with help from (in alphabetical order)
   P. Atkinson, C. Bannwarth, F. Bohle, G. Brandenburg, E. Caldeweyher
   M. Checinski, S. Dohm, S. Ehlert, S. Ehrlich, I. Gerasimov, C. Hölzer
   A. Katbashev, J. Koopman, C. Lavigne, S. Lehtola, F. März, M. Müller,
   F. Musil, H. Neugebauer, J. Pisarek, C. Plett, P. Pracht, F. Pultar,
   J. Seibert, P. Shushkov, S. Spicher, M. Stahn, M. Steiner, T. Strunk,
   J. Stückrath, T. Rose, and J. Unsleber
   
 * started run on 2025/05/23 at 11:18:28.403     

           -------------------------------------------------
          |                Calculation Setup                |
           -------------------------------------------------

          program call               : /home/avcopan/code/other/saddle-search-practice/.pixi/envs/default/bin/xtb path_opt1_xtb.xyz --chrg 0 --uhf 0 --opt --input xcontrol_path_opt1_xtb
          coordinate file            : path_opt1_xtb.xyz
          omp threads                :                     1

   ID    Z sym.   atoms
    1    6 C      1-6
    2    1 H      7-16
constraining bond 3 4 to    1.7677000 Å, actual value:    1.7170886 Å
constraining bond 5 6 to    1.7677000 Å, actual value:    1.7171739 Å

           -------------------------------------------------
          |                 G F N 2 - x T B                 |
           -------------------------------------------------

        Reference                      10.1021/acs.jctc.8b01176
      * Hamiltonian:
        H0-scaling (s, p, d)           1.850000    2.230000    2.230000
        zeta-weighting                 0.500000
      * Dispersion:
        s8                             2.700000
        a1                             0.520000
        a2                             5.000000
        s9                             5.000000
      * Repulsion:
        kExp                           1.500000    1.000000
        rExp                           1.000000
      * Coulomb:
        alpha                          2.000000
        third order                    shell-resolved
        anisotropic                    true
        a3                             3.000000
        a5                             4.000000
        cn-shift                       1.200000
        cn-exp                         4.000000
        max-rad                        5.000000


          ...................................................
          :                      SETUP                      :
          :.................................................:
          :  # basis functions                  34          :
          :  # atomic orbitals                  34          :
          :  # shells                           22          :
          :  # electrons                        34          :
          :  max. iterations                   250          :
          :  Hamiltonian                  GFN2-xTB          :
          :  restarted?                      false          :
          :  GBSA solvation                  false          :
          :  PC potential                    false          :
          :  electronic temp.          300.0000000     K    :
          :  accuracy                    1.0000000          :
          :  -> integral cutoff          0.2500000E+02      :
          :  -> integral neglect         0.1000000E-07      :
          :  -> SCF convergence          0.1000000E-05 Eh   :
          :  -> wf. convergence          0.1000000E-03 e    :
          :  Broyden damping             0.4000000          :
          ...................................................

 iter      E             dE          RMSdq      gap      omega  full diag
   1    -18.1562850 -0.181563E+02  0.325E+00    5.30       0.0  T
   2    -18.1866590 -0.303740E-01  0.185E+00    5.22       1.0  T
   3    -18.1871940 -0.534954E-03  0.685E-01    5.18       1.0  T
   4    -18.1872963 -0.102299E-03  0.120E-01    5.18       1.0  T
   5    -18.1874236 -0.127370E-03  0.517E-02    5.18       1.0  T
   6    -18.1874263 -0.262500E-05  0.169E-02    5.18       1.5  T
   7    -18.1874265 -0.280855E-06  0.192E-03    5.18      13.0  T
   8    -18.1874266 -0.154405E-08  0.386E-04    5.18      64.7  T
   9    -18.1874266 -0.768676E-09  0.197E-04    5.18     127.1  T

   *** convergence criteria satisfied after 9 iterations ***

         #    Occupation            Energy/Eh            Energy/eV
      -------------------------------------------------------------
         1        2.0000           -0.6199451             -16.8696
       ...           ...                  ...                  ...
        11        2.0000           -0.4675901             -12.7238
        12        2.0000           -0.4645909             -12.6422
        13        2.0000           -0.4486008             -12.2070
        14        2.0000           -0.4348777             -11.8336
        15        2.0000           -0.4125422             -11.2258
        16        2.0000           -0.4011628             -10.9162
        17        2.0000           -0.3799343             -10.3385 (HOMO)
        18                         -0.1894485              -5.1552 (LUMO)
        19                         -0.0590484              -1.6068
        20                         -0.0373751              -1.0170
        21                          0.1181333               3.2146
        22                          0.1291218               3.5136
       ...                                ...                  ...
        34                          0.6419569              17.4685
      -------------------------------------------------------------
                  HL-Gap            0.1904858 Eh            5.1834 eV
             Fermi-level           -0.2846914 Eh           -7.7468 eV

 SCC (total)                   0 d,  0 h,  0 min,  0.008 sec
 SCC setup                      ...        0 min,  0.000 sec (  2.425%)
 Dispersion                     ...        0 min,  0.000 sec (  1.134%)
 classical contributions        ...        0 min,  0.000 sec (  0.373%)
 integral evaluation            ...        0 min,  0.001 sec ( 14.195%)
 iterations                     ...        0 min,  0.003 sec ( 43.501%)
 molecular gradient             ...        0 min,  0.003 sec ( 36.174%)
 printout                       ...        0 min,  0.000 sec (  2.023%)

         :::::::::::::::::::::::::::::::::::::::::::::::::::::
         ::                     SUMMARY                     ::
         :::::::::::::::::::::::::::::::::::::::::::::::::::::
         :: total energy             -17.867689953367 Eh    ::
         :: gradient norm              0.634041857401 Eh/a0 ::
         :: HOMO-LUMO gap              5.183382398206 eV    ::
         ::.................................................::
         :: SCC energy               -18.187426551296 Eh    ::
         :: -> isotropic ES            0.002511951647 Eh    ::
         :: -> anisotropic ES          0.005707981770 Eh    ::
         :: -> anisotropic XC          0.012357119244 Eh    ::
         :: -> dispersion             -0.009896837040 Eh    ::
         :: repulsion energy           0.283185926938 Eh    ::
         :: add. restraining           0.036527679942 Eh    ::
         :: total charge               0.000000000000 e     ::
         :::::::::::::::::::::::::::::::::::::::::::::::::::::

      ----------------------------------------------------------- 
     |                   =====================                   |
     |                        A N C O P T                        |
     |                   =====================                   |
     |               Approximate Normal Coordinate               |
     |                Rational Function Optimizer                |
      ----------------------------------------------------------- 

          ...................................................
          :                      SETUP                      :
          :.................................................:
          :   optimization level            normal          :
          :   max. optcycles                   200          :
          :   ANC micro-cycles                  20          :
          :   degrees of freedom                42          :
          :.................................................:
          :   RF solver                   davidson          :
          :   write xtbopt.log                true          :
          :   linear?                        false          :
          :   energy convergence         0.5000000E-05 Eh   :
          :   grad. convergence          0.1000000E-02 Eh/α :
          :   maxmium RF displ.          1.0000000          :
          :   Hlow (freq-cutoff)         0.1000000E-01      :
          :   Hmax (freq-cutoff)         5.0000000          :
          :   S6 in model hess.         20.0000000          :
          ...................................................

generating ANC from model Hessian ...
Using Lindh-Hessian (1995)
 Shifting diagonal of input Hessian by    6.1362764702818352E-002
 Lowest  eigenvalues of input Hessian
    0.010000    0.021845    0.040516    0.000000    0.000000    0.000000
    0.000000    0.000000    0.000000    0.061582    0.077017    0.079366
    0.081037    0.089588    0.095129    0.095479    0.101486    0.104463
 Highest eigenvalues
    1.205303    1.250941    1.532375    1.980928    8.767304    8.779845


........................................................................
.............................. CYCLE    1 ..............................
........................................................................

 iter      E             dE          RMSdq      gap      omega  full diag
   1    -18.1874266 -0.181874E+02  0.878E-05    5.18       0.0  T
   2    -18.1874266 -0.452616E-11  0.534E-05    5.18     468.1  T
   3    -18.1874266  0.215294E-11  0.387E-05    5.18     645.3  T
     SCC iter.                  ...        0 min,  0.001 sec
     gradient                   ...        0 min,  0.003 sec
 * total energy  :   -17.8676900 Eh     change       -0.1833627E-09 Eh
   gradient norm :     0.6340419 Eh/α   predicted     0.0000000E+00 (-100.00%)
   displ. norm   :     0.1354487 α      lambda       -0.7992861E-01
   maximum displ.:     0.1247514 α      in ANC's #41, #27, #18, ...

........................................................................
.............................. CYCLE    2 ..............................
........................................................................

 iter      E             dE          RMSdq      gap      omega  full diag
   1    -18.1757233 -0.181757E+02  0.134E-01    5.14       0.0  T
   2    -18.1757371 -0.138531E-04  0.826E-02    5.13       1.0  T
   3    -18.1757369  0.275180E-06  0.141E-02    5.13       1.8  T
   4    -18.1757374 -0.556640E-06  0.357E-03    5.13       7.0  T
   5    -18.1757376 -0.144890E-06  0.138E-03    5.13      18.2  T
   6    -18.1757376 -0.108864E-08  0.712E-04    5.13      35.1  T
   7    -18.1757376 -0.250641E-08  0.308E-04    5.13      81.2  T
     SCC iter.                  ...        0 min,  0.002 sec
     gradient                   ...        0 min,  0.004 sec
 * total energy  :   -17.8822748 Eh     change       -0.1458483E-01 Eh
   gradient norm :     0.4042230 Eh/α   predicted    -0.4069752E-01 ( 179.04%)
   displ. norm   :     0.0502464 α      lambda       -0.1968195E-01
   maximum displ.:     0.0485735 α      in ANC's #41, #2, #15, ...

........................................................................
.............................. CYCLE    3 ..............................
........................................................................

 iter      E             dE          RMSdq      gap      omega  full diag
   1    -18.1780715 -0.181781E+02  0.702E-02    5.15       0.0  T
   2    -18.1780754 -0.391541E-05  0.416E-02    5.15       1.0  T
   3    -18.1780753  0.583285E-07  0.822E-03    5.15       3.0  T
   4    -18.1780754 -0.111187E-06  0.158E-03    5.15      15.8  T
   5    -18.1780755 -0.312106E-07  0.517E-04    5.15      48.3  T
   6    -18.1780755 -0.132015E-08  0.282E-04    5.15      88.5  T
     SCC iter.                  ...        0 min,  0.002 sec
     gradient                   ...        0 min,  0.003 sec
 * total energy  :   -17.8921931 Eh     change       -0.9918324E-02 Eh
   gradient norm :     0.0036677 Eh/α   predicted    -0.9865821E-02 (  -0.53%)
   displ. norm   :     0.0193257 α      lambda       -0.3274113E-04
   maximum displ.:     0.0118312 α      in ANC's #1, #18, #4, ...

........................................................................
.............................. CYCLE    4 ..............................
........................................................................

 iter      E             dE          RMSdq      gap      omega  full diag
   1    -18.1771471 -0.181771E+02  0.231E-02    5.16       0.0  T
   2    -18.1771472 -0.822776E-07  0.135E-02    5.16       1.9  T
   3    -18.1771472  0.295826E-08  0.122E-03    5.16      20.6  T
   4    -18.1771472 -0.706072E-08  0.585E-04    5.16      42.8  T
   5    -18.1771472 -0.368290E-08  0.187E-04    5.16     133.4  T
     SCC iter.                  ...        0 min,  0.002 sec
     gradient                   ...        0 min,  0.003 sec
 * total energy  :   -17.8922105 Eh     change       -0.1735119E-04 Eh
   gradient norm :     0.0019327 Eh/α   predicted    -0.1637469E-04 (  -5.63%)
   displ. norm   :     0.0970434 α      lambda       -0.7442091E-04
   maximum displ.:     0.0724861 α      in ANC's #1, #18, #15, ...

........................................................................
.............................. CYCLE    5 ..............................
........................................................................

 iter      E             dE          RMSdq      gap      omega  full diag
   1    -18.1732048 -0.181732E+02  0.113E-01    5.16       0.0  T
   2    -18.1732064 -0.160506E-05  0.666E-02    5.16       1.0  T
   3    -18.1732059  0.530998E-06  0.809E-03    5.16       3.1  T
   4    -18.1732064 -0.567367E-06  0.363E-03    5.16       6.9  T
   5    -18.1732066 -0.160519E-06  0.834E-04    5.16      30.0  T
   6    -18.1732066 -0.757886E-09  0.382E-04    5.16      65.5  T
     SCC iter.                  ...        0 min,  0.002 sec
     gradient                   ...        0 min,  0.004 sec
 * total energy  :   -17.8919618 Eh     change        0.2486126E-03 Eh
   gradient norm :     0.0130832 Eh/α   predicted    -0.3736410E-04 (-115.03%)
   displ. norm   :     0.0533806 α      lambda       -0.3491478E-03
   maximum displ.:     0.0440582 α      in ANC's #1, #4, #18, ...

........................................................................
.............................. CYCLE    6 ..............................
........................................................................

 iter      E             dE          RMSdq      gap      omega  full diag
   1    -18.1753519 -0.181754E+02  0.652E-02    5.16       0.0  T
   2    -18.1753523 -0.434123E-06  0.384E-02    5.16       1.0  T
   3    -18.1753522  0.172304E-06  0.442E-03    5.16       5.7  T
   4    -18.1753524 -0.190426E-06  0.188E-03    5.16      13.3  T
   5    -18.1753524 -0.421406E-07  0.475E-04    5.16      52.7  T
   6    -18.1753524 -0.329784E-09  0.231E-04    5.16     108.2  T
     SCC iter.                  ...        0 min,  0.002 sec
     gradient                   ...        0 min,  0.003 sec
 * total energy  :   -17.8921905 Eh     change       -0.2287050E-03 Eh
   gradient norm :     0.0048668 Eh/α   predicted    -0.1750715E-03 ( -23.45%)
   displ. norm   :     0.0527194 α      lambda       -0.9863196E-04
   maximum displ.:     0.0412254 α      in ANC's #2, #1, #15, ...

........................................................................
.............................. CYCLE    7 ..............................
........................................................................

 iter      E             dE          RMSdq      gap      omega  full diag
   1    -18.1767298 -0.181767E+02  0.647E-02    5.16       0.0  T
   2    -18.1767301 -0.294099E-06  0.380E-02    5.16       1.0  T
   3    -18.1767299  0.198938E-06  0.442E-03    5.16       5.7  T
   4    -18.1767301 -0.246525E-06  0.117E-03    5.16      21.4  T
   5    -18.1767301 -0.113918E-07  0.542E-04    5.16      46.2  T
   6    -18.1767301 -0.186430E-08  0.233E-04    5.16     107.4  T
     SCC iter.                  ...        0 min,  0.002 sec
     gradient                   ...        0 min,  0.003 sec
 * total energy  :   -17.8921842 Eh     change        0.6380613E-05 Eh
   gradient norm :     0.0050362 Eh/α   predicted    -0.4945358E-04 (-875.06%)
   displ. norm   :     0.0366030 α      lambda       -0.8800643E-04
   maximum displ.:     0.0354241 α      in ANC's #2, #1, #15, ...

........................................................................
.............................. CYCLE    8 ..............................
........................................................................

 iter      E             dE          RMSdq      gap      omega  full diag
   1    -18.1768379 -0.181768E+02  0.458E-02    5.16       0.0  T
   2    -18.1768380 -0.736439E-07  0.271E-02    5.16       1.0  T
   3    -18.1768379  0.100737E-06  0.292E-03    5.16       8.6  T
   4    -18.1768380 -0.128035E-06  0.436E-04    5.16      57.4  T
   5    -18.1768380  0.927152E-10  0.260E-04    5.16      96.1  T
     SCC iter.                  ...        0 min,  0.002 sec
     gradient                   ...        0 min,  0.003 sec
 * total energy  :   -17.8922204 Eh     change       -0.3619702E-04 Eh
   gradient norm :     0.0018593 Eh/α   predicted    -0.4406208E-04 (  21.73%)
   displ. norm   :     0.0135400 α      lambda       -0.7176761E-05
   maximum displ.:     0.0105611 α      in ANC's #1, #9, #2, ...

........................................................................
.............................. CYCLE    9 ..............................
........................................................................

 iter      E             dE          RMSdq      gap      omega  full diag
   1    -18.1762834 -0.181763E+02  0.181E-02    5.16       0.0  T
   2    -18.1762834 -0.421282E-07  0.107E-02    5.16       2.3  T
   3    -18.1762834  0.423728E-07  0.199E-03    5.16      12.6  T
   4    -18.1762834 -0.452293E-07  0.589E-04    5.16      42.5  T
   5    -18.1762834 -0.430807E-08  0.127E-04    5.16     196.6  T
     SCC iter.                  ...        0 min,  0.001 sec
     gradient                   ...        0 min,  0.003 sec
 * total energy  :   -17.8922216 Eh     change       -0.1208983E-05 Eh
   gradient norm :     0.0020299 Eh/α   predicted    -0.3589735E-05 ( 196.92%)
   displ. norm   :     0.0045003 α      lambda       -0.2892095E-05
   maximum displ.:     0.0032482 α      in ANC's #1, #2, #15, ...

........................................................................
.............................. CYCLE   10 ..............................
........................................................................

 iter      E             dE          RMSdq      gap      omega  full diag
   1    -18.1764769 -0.181765E+02  0.531E-03    5.16       0.0  T
   2    -18.1764770 -0.427398E-08  0.313E-03    5.16       8.0  T
   3    -18.1764769  0.805736E-08  0.853E-04    5.16      29.3  T
   4    -18.1764770 -0.877776E-08  0.171E-04    5.16     146.1  T
     SCC iter.                  ...        0 min,  0.002 sec
     gradient                   ...        0 min,  0.004 sec
 * total energy  :   -17.8922235 Eh     change       -0.1962481E-05 Eh
   gradient norm :     0.0006017 Eh/α   predicted    -0.1445296E-05 ( -26.35%)
   displ. norm   :     0.0073070 α      lambda       -0.1048988E-05
   maximum displ.:     0.0049101 α      in ANC's #2, #1, #4, ...

   *** GEOMETRY OPTIMIZATION CONVERGED AFTER 10 ITERATIONS ***

------------------------------------------------------------------------
 total energy gain   :        -0.0245336 Eh      -15.3951 kcal/mol
 total RMSD          :         0.0288687 a0        0.0153 Å
 total power (kW/mol):        -6.4412908 (step) -890.7341 (real)
------------------------------------------------------------------------

 ANCopt (total)                0 d,  0 h,  0 min,  0.072 sec
 optimizer setup                ...        0 min,  0.000 sec (  0.126%)
 model hessian                  ...        0 min,  0.007 sec (  9.732%)
 ANC generation                 ...        0 min,  0.000 sec (  0.490%)
 coordinate transformation      ...        0 min,  0.000 sec (  0.091%)
 single point calculation       ...        0 min,  0.062 sec ( 85.502%)
 optimization log               ...        0 min,  0.001 sec (  1.463%)
 hessian update                 ...        0 min,  0.000 sec (  0.152%)
 rational function              ...        0 min,  0.001 sec (  1.598%)

================
 final structure:
================
16
 xtb: 6.6.1 (8d0f1dd)
C           -0.89171081984198       -1.28368487040730       -0.18868733245137
C            0.41281708383121       -1.49686933108489       -0.25989392351865
C            1.48072513638814       -0.47627573143799       -0.11423024530064
C            0.80777950642400        1.14242707877900       -0.24776363354423
C           -0.40316724762687        1.20901560182027        0.62911911266272
C           -1.55870675226505        0.02257153527611        0.03924224353681
H           -1.57044146905443       -2.11954867873931       -0.31632646126363
H            0.77395655319210       -2.50524548273383       -0.42837290274620
H            2.23519855314021       -0.56703825814773       -0.89116262976527
H            1.95432741784604       -0.53004102223262        0.86423877063854
H            0.56742876518319        1.28875878160543       -1.29578223531319
H            1.59389570122729        1.82541716789099        0.06303667663880
H           -0.90554908596039        2.17164265889477        0.58446621495883
H           -0.18401837223605        0.93972538313109        1.65711215216870
H           -2.34284800754832       -0.04946591607918        0.78835809232799
H           -1.96960696269912        0.42850108346524       -0.88315389902923

 Bond Distances (Angstroems)
 ---------------------------
C1-C2=1.3237         C1-C6=1.4843         C1-H7=1.0843         C2-C1=1.3237         C2-C3=1.4843         C2-H8=1.0843         
C3-C2=1.4843         C3-C4=1.7581         C3-H9=1.0868         C3-H10=1.0884        C4-C3=1.7581         C4-C5=1.4966         
C4-H11=1.0851        C4-H12=1.0868        C5-C4=1.4966         C5-C6=1.7581         C5-H13=1.0868        C5-H14=1.0850        
C6-C1=1.4843         C6-C5=1.7581         C6-H15=1.0868        C6-H16=1.0883        H7-C1=1.0843         H8-C2=1.0843         
H9-C3=1.0868         H10-C3=1.0884        H11-C4=1.0851        H12-C4=1.0868        H13-C5=1.0868        H14-C5=1.0850        
H15-C6=1.0868        H16-C6=1.0883        
 C  H  Rav=1.0863 sigma=0.0014  Rmin=1.0843  Rmax=1.0884    10
 C  C  Rav=1.5509 sigma=0.1577  Rmin=1.3237  Rmax=1.7581     6

 selected bond angles (degree)
 --------------------
C6-C1-C2=126.36                H7-C1-C2=119.10                H7-C1-C6=114.53                C3-C2-C1=126.37                
H8-C2-C1=119.10                H8-C2-C3=114.52                C4-C3-C2=110.50                H9-C3-C2=111.83                
H9-C3-C4=106.76                H10-C3-C2=111.55               H10-C3-C4=106.28               H10-C3-H9=109.66               
C5-C4-C3=107.83                H11-C4-C3=106.40               H11-C4-C5=112.37               H12-C4-C3=106.26               
H12-C4-C5=112.94               H12-C4-H11=110.59              C6-C5-C4=107.77                H13-C5-C4=112.92               
H13-C5-C6=106.27               H14-C5-C4=112.37               H14-C5-C6=106.45               H14-C5-H13=110.62              
C5-C6-C1=110.49                H15-C6-C1=111.82               H15-C6-C5=106.72               H16-C6-C1=111.58               
H16-C6-C5=106.31               H16-C6-H15=109.66              

 selected dihedral angles (degree)
 ---------------------------------
C3-C2-C1-C6=  0.60            C3-C2-C1-H7=179.81            H8-C2-C1-C6=179.81            H8-C2-C1-H7=359.02            
C4-C3-C2-C1=345.17            C4-C3-C2-H8=165.93            H9-C3-C2-C1=226.39            H9-C3-C2-H8= 47.15            
H10-C3-C2-C1=103.17           H10-C3-C2-H8=283.93           C5-C4-C3-C2= 47.60            C5-C4-C3-H9=169.42            
C5-C4-C3-H10=286.42           H11-C4-C3-C2=286.84           H11-C4-C3-H9= 48.66           H11-C4-C3-H10=165.66          
H12-C4-C3-C2=168.95           H12-C4-C3-H9=290.77           H12-C4-C3-H10= 47.77          C6-C5-C4-C3=298.87            
C6-C5-C4-H11= 55.81           C6-C5-C4-H12=181.77           H13-C5-C4-C3=181.81           H13-C5-C4-H11=298.76          
H13-C5-C4-H12= 64.71          H14-C5-C4-C3= 55.84           H14-C5-C4-H11=172.78          H14-C5-C4-H12=298.74          
C5-C6-C1-C2=344.96            C5-C6-C1-H7=165.72            H15-C6-C1-C2=226.24           H15-C6-C1-H7= 47.00           
H16-C6-C1-C2=103.01           H16-C6-C1-H7=283.76           C1-C6-C5-C4= 47.77            C1-C6-C5-H13=169.06           
C1-C6-C5-H14=287.01           H15-C6-C5-C4=169.54           H15-C6-C5-H13=290.84          H15-C6-C5-H14= 48.79          
H16-C6-C5-C4=286.54           H16-C6-C5-H13= 47.84          H16-C6-C5-H14=165.78          
           -------------------------------------------------
          |                Final Singlepoint                |
           -------------------------------------------------

          ...................................................
          :                      SETUP                      :
          :.................................................:
          :  # basis functions                  34          :
          :  # atomic orbitals                  34          :
          :  # shells                           22          :
          :  # electrons                        34          :
          :  max. iterations                   250          :
          :  Hamiltonian                  GFN2-xTB          :
          :  restarted?                      false          :
          :  GBSA solvation                  false          :
          :  PC potential                    false          :
          :  electronic temp.          300.0000000     K    :
          :  accuracy                    1.0000000          :
          :  -> integral cutoff          0.2500000E+02      :
          :  -> integral neglect         0.1000000E-07      :
          :  -> SCF convergence          0.1000000E-05 Eh   :
          :  -> wf. convergence          0.1000000E-03 e    :
          :  Broyden damping             0.4000000          :
          ...................................................

 iter      E             dE          RMSdq      gap      omega  full diag
   1    -18.1764770 -0.181765E+02  0.395E-05    5.16       0.0  T
   2    -18.1764770 -0.852651E-12  0.234E-05    5.16    1067.6  T
   3    -18.1764770  0.131450E-11  0.129E-05    5.16    1935.7  T

   *** convergence criteria satisfied after 3 iterations ***

         #    Occupation            Energy/Eh            Energy/eV
      -------------------------------------------------------------
         1        2.0000           -0.6184771             -16.8296
       ...           ...                  ...                  ...
        11        2.0000           -0.4685346             -12.7495
        12        2.0000           -0.4641091             -12.6291
        13        2.0000           -0.4464820             -12.1494
        14        2.0000           -0.4362889             -11.8720
        15        2.0000           -0.4105531             -11.1717
        16        2.0000           -0.3989442             -10.8558
        17        2.0000           -0.3796252             -10.3301 (HOMO)
        18                         -0.1900616              -5.1718 (LUMO)
        19                         -0.0847118              -2.3051
        20                         -0.0626152              -1.7038
        21                          0.1175629               3.1991
        22                          0.1309507               3.5633
       ...                                ...                  ...
        34                          0.6423651              17.4796
      -------------------------------------------------------------
                  HL-Gap            0.1895636 Eh            5.1583 eV
             Fermi-level           -0.2848434 Eh           -7.7510 eV

 SCC (total)                   0 d,  0 h,  0 min,  0.007 sec
 SCC setup                      ...        0 min,  0.000 sec (  2.267%)
 Dispersion                     ...        0 min,  0.000 sec (  1.166%)
 classical contributions        ...        0 min,  0.000 sec (  0.500%)
 integral evaluation            ...        0 min,  0.002 sec ( 24.840%)
 iterations                     ...        0 min,  0.001 sec ( 21.330%)
 molecular gradient             ...        0 min,  0.003 sec ( 47.311%)
 printout                       ...        0 min,  0.000 sec (  2.310%)

         :::::::::::::::::::::::::::::::::::::::::::::::::::::
         ::                     SUMMARY                     ::
         :::::::::::::::::::::::::::::::::::::::::::::::::::::
         :: total energy             -17.892223534544 Eh    ::
         :: gradient norm              0.000601742885 Eh/a0 ::
         :: HOMO-LUMO gap              5.158287894274 eV    ::
         ::.................................................::
         :: SCC energy               -18.176476953820 Eh    ::
         :: -> isotropic ES            0.002521101110 Eh    ::
         :: -> anisotropic ES          0.005992184029 Eh    ::
         :: -> anisotropic XC          0.012515703743 Eh    ::
         :: -> dispersion             -0.009866977930 Eh    ::
         :: repulsion energy           0.282910661521 Eh    ::
         :: add. restraining           0.001319110237 Eh    ::
         :: total charge               0.000000000000 e     ::
         :::::::::::::::::::::::::::::::::::::::::::::::::::::

           -------------------------------------------------
          |                Property Printout                |
           -------------------------------------------------

    * Orbital Energies and Occupations

         #    Occupation            Energy/Eh            Energy/eV
      -------------------------------------------------------------
         1        2.0000           -0.6184771             -16.8296
       ...           ...                  ...                  ...
         5        2.0000           -0.5556963             -15.1213
         6        2.0000           -0.5223875             -14.2149
         7        2.0000           -0.5127198             -13.9518
         8        2.0000           -0.4926418             -13.4055
         9        2.0000           -0.4804662             -13.0742
        10        2.0000           -0.4687244             -12.7546
        11        2.0000           -0.4685346             -12.7495
        12        2.0000           -0.4641091             -12.6291
        13        2.0000           -0.4464820             -12.1494
        14        2.0000           -0.4362889             -11.8720
        15        2.0000           -0.4105531             -11.1717
        16        2.0000           -0.3989442             -10.8558
        17        2.0000           -0.3796252             -10.3301 (HOMO)
        18                         -0.1900616              -5.1718 (LUMO)
        19                         -0.0847118              -2.3051
        20                         -0.0626152              -1.7038
        21                          0.1175629               3.1991
        22                          0.1309507               3.5633
        23                          0.1564517               4.2573
        24                          0.1580950               4.3020
        25                          0.1774930               4.8298
        26                          0.1890907               5.1454
        27                          0.2236165               6.0849
        28                          0.2299212               6.2565
       ...                                ...                  ...
        34                          0.6423651              17.4796
      -------------------------------------------------------------
                  HL-Gap            0.1895636 Eh            5.1583 eV
             Fermi-level           -0.2848434 Eh           -7.7510 eV

     #   Z          covCN         q      C6AA      α(0)
     1   6 C        2.887    -0.038    28.935     8.819
     2   6 C        2.887    -0.038    28.935     8.819
     3   6 C        3.714    -0.064    21.858     6.680
     4   6 C        3.711    -0.060    21.791     6.671
     5   6 C        3.711    -0.060    21.791     6.671
     6   6 C        3.714    -0.064    21.857     6.680
     7   1 H        0.925     0.023     2.693     2.566
     8   1 H        0.925     0.023     2.693     2.566
     9   1 H        0.925     0.035     2.514     2.479
    10   1 H        0.925     0.040     2.453     2.449
    11   1 H        0.925     0.035     2.513     2.479
    12   1 H        0.925     0.028     2.608     2.525
    13   1 H        0.925     0.029     2.607     2.525
    14   1 H        0.925     0.035     2.513     2.479
    15   1 H        0.925     0.035     2.515     2.480
    16   1 H        0.925     0.040     2.452     2.449

 Mol. C6AA /au·bohr⁶  :       2057.736823
 Mol. C8AA /au·bohr⁸  :      45629.579102
 Mol. α(0) /au        :         69.337563


Wiberg/Mayer (AO) data.
largest (>0.10) Wiberg bond orders for each atom

 ---------------------------------------------------------------------------
     #   Z sym  total        # sym  WBO       # sym  WBO       # sym  WBO
 ---------------------------------------------------------------------------
     1   6 C    3.991 --     2 C    1.920     6 C    1.042     7 H    0.962
     2   6 C    3.991 --     1 C    1.920     3 C    1.042     8 H    0.962
     3   6 C    3.995 --     2 C    1.042     9 H    0.973    10 H    0.965
                             4 C    0.963
     4   6 C    3.995 --     5 C    1.042    11 H    0.983    12 H    0.978
                             3 C    0.963
     5   6 C    3.995 --     4 C    1.042    14 H    0.983    13 H    0.978
                             6 C    0.963
     6   6 C    3.995 --     1 C    1.042    15 H    0.973    16 H    0.965
                             5 C    0.963
     7   1 H    0.999 --     1 C    0.962
     8   1 H    0.999 --     2 C    0.962
     9   1 H    0.999 --     3 C    0.973
    10   1 H    0.998 --     3 C    0.965
    11   1 H    0.999 --     4 C    0.983
    12   1 H    0.999 --     4 C    0.978
    13   1 H    0.999 --     5 C    0.978
    14   1 H    0.999 --     5 C    0.983
    15   1 H    0.999 --     6 C    0.973
    16   1 H    0.998 --     6 C    0.965
 ---------------------------------------------------------------------------

Topologies differ in total number of bonds
Writing topology from bond orders to xtbtopo.mol

molecular dipole:
                 x           y           z       tot (Debye)
 q only:        0.018       0.104       0.017
   full:        0.019       0.110       0.018       0.287
molecular quadrupole (traceless):
                xx          xy          yy          xz          yz          zz
 q only:        0.762      -0.192      -0.337      -0.024       0.013      -0.425
  q+dip:        1.504      -0.370      -0.309       0.295       0.083      -1.195
   full:        1.028      -0.276      -0.342       0.192       0.015      -0.685

           -------------------------------------------------
          |                Geometry Summary                 |
           -------------------------------------------------

      molecular mass/u    :       82.1438229
   center of mass at/Å    :       -0.0203940      -0.1182506      -0.0190464
  moments of inertia/u·Å² :        0.1139063E+03   0.1178949E+03   0.2098174E+03
rotational constants/cm⁻¹ :        0.1479956E+00   0.1429886E+00   0.8034430E-01

 * 12 selected distances

     #   Z          #   Z                                           value/Å
     1   6 C        2   6 C                                       1.3237490
     4   6 C        5   6 C                                       1.4965794 (max)
     1   6 C        7   1 H                                       1.0842673
     2   6 C        8   1 H                                       1.0842645 (min)
     3   6 C        9   1 H                                       1.0867806
     3   6 C       10   1 H                                       1.0883895
     4   6 C       11   1 H                                       1.0851381
     4   6 C       12   1 H                                       1.0867618
     5   6 C       13   1 H                                       1.0867532
     5   6 C       14   1 H                                       1.0850407
     6   6 C       15   1 H                                       1.0868494
     6   6 C       16   1 H                                       1.0883164

 * 2 distinct bonds (by element types)

   Z      Z             #   av. dist./Å        max./Å        min./Å
   1 H    6 C          10     1.0862562     1.0883895     1.0842645
   6 C    6 C           2     1.4101642     1.4965794     1.3237490


optimized geometry written to: xtbopt.xyz


           -------------------------------------------------
          | TOTAL ENERGY              -17.892223534544 Eh   |
          | GRADIENT NORM               0.000601742885 Eh/α |
          | HOMO-LUMO GAP               5.158287894274 eV   |
           -------------------------------------------------

------------------------------------------------------------------------
 * finished run on 2025/05/23 at 11:18:28.499     
------------------------------------------------------------------------
 total:
 * wall-time:     0 d,  0 h,  0 min,  0.096 sec
 *  cpu-time:     0 d,  0 h,  0 min,  0.096 sec
 * ratio c/w:     1.000 speedup
 SCF:
 * wall-time:     0 d,  0 h,  0 min,  0.008 sec
 *  cpu-time:     0 d,  0 h,  0 min,  0.008 sec
 * ratio c/w:     1.000 speedup
 ANC optimizer:
 * wall-time:     0 d,  0 h,  0 min,  0.080 sec
 *  cpu-time:     0 d,  0 h,  0 min,  0.080 sec
 * ratio c/w:     1.000 speedup

