
                                 *****************
                                 * O   R   C   A *
                                 *****************

                                            #,                                       
                                            ###                                      
                                            ####                                     
                                            #####                                    
                                            ######                                   
                                           ########,                                 
                                     ,,################,,,,,                         
                               ,,#################################,,                 
                          ,,##########################################,,             
                       ,#########################################, ''#####,          
                    ,#############################################,,   '####,        
                  ,##################################################,,,,####,       
                ,###########''''           ''''###############################       
              ,#####''   ,,,,##########,,,,          '''####'''          '####       
            ,##' ,,,,###########################,,,                        '##       
           ' ,,###''''                  '''############,,,                           
         ,,##''                                '''############,,,,        ,,,,,,###''
      ,#''                                            '''#######################'''  
     '                                                          ''''####''''         
             ,#######,   #######,   ,#######,      ##                                
            ,#'     '#,  ##    ##  ,#'     '#,    #''#        ######   ,####,        
            ##       ##  ##   ,#'  ##            #'  '#       #        #'  '#        
            ##       ##  #######   ##           ,######,      #####,   #    #        
            '#,     ,#'  ##    ##  '#,     ,#' ,#      #,         ##   #,  ,#        
             '#######'   ##     ##  '#######'  #'      '#     #####' # '####'        



                  #######################################################
                  #                        -***-                        #
                  #          Department of theory and spectroscopy      #
                  #    Directorship and core code : Frank Neese         #
                  #        Max Planck Institute fuer Kohlenforschung    #
                  #                Kaiser Wilhelm Platz 1               #
                  #                 D-45470 Muelheim/Ruhr               #
                  #                      Germany                        #
                  #                                                     #
                  #                  All rights reserved                #
                  #                        -***-                        #
                  #######################################################


                         Program Version 5.0.4 -  RELEASE  -


 With contributions from (in alphabetic order):
   Daniel Aravena         : Magnetic Suceptibility
   Michael Atanasov       : Ab Initio Ligand Field Theory (pilot matlab implementation)
   Alexander A. Auer      : GIAO ZORA, VPT2 properties, NMR spectrum
   Ute Becker             : Parallelization
   Giovanni Bistoni       : ED, misc. LED, open-shell LED, HFLD
   Martin Brehm           : Molecular dynamics
   Dmytro Bykov           : SCF Hessian
   Vijay G. Chilkuri      : MRCI spin determinant printing, contributions to CSF-ICE
   Dipayan Datta          : RHF DLPNO-CCSD density
   Achintya Kumar Dutta   : EOM-CC, STEOM-CC
   Dmitry Ganyushin       : Spin-Orbit,Spin-Spin,Magnetic field MRCI
   Miquel Garcia          : C-PCM and meta-GGA Hessian, CC/C-PCM, Gaussian charge scheme
   Yang Guo               : DLPNO-NEVPT2, F12-NEVPT2, CIM, IAO-localization
   Andreas Hansen         : Spin unrestricted coupled pair/coupled cluster methods
   Benjamin Helmich-Paris : MC-RPA, TRAH-SCF, COSX integrals
   Lee Huntington         : MR-EOM, pCC
   Robert Izsak           : Overlap fitted RIJCOSX, COSX-SCS-MP3, EOM
   Marcus Kettner         : VPT2
   Christian Kollmar      : KDIIS, OOCD, Brueckner-CCSD(T), CCSD density, CASPT2, CASPT2-K
   Simone Kossmann        : Meta GGA functionals, TD-DFT gradient, OOMP2, MP2 Hessian
   Martin Krupicka        : Initial AUTO-CI
   Lucas Lang             : DCDCAS
   Marvin Lechner         : AUTO-CI (C++ implementation), FIC-MRCC
   Dagmar Lenk            : GEPOL surface, SMD
   Dimitrios Liakos       : Extrapolation schemes; Compound Job, initial MDCI parallelization
   Dimitrios Manganas     : Further ROCIS development; embedding schemes
   Dimitrios Pantazis     : SARC Basis sets
   Anastasios Papadopoulos: AUTO-CI, single reference methods and gradients
   Taras Petrenko         : DFT Hessian,TD-DFT gradient, ASA, ECA, R-Raman, ABS, FL, XAS/XES, NRVS
   Peter Pinski           : DLPNO-MP2, DLPNO-MP2 Gradient
   Christoph Reimann      : Effective Core Potentials
   Marius Retegan         : Local ZFS, SOC
   Christoph Riplinger    : Optimizer, TS searches, QM/MM, DLPNO-CCSD(T), (RO)-DLPNO pert. Triples
   Tobias Risthaus        : Range-separated hybrids, TD-DFT gradient, RPA, STAB
   Michael Roemelt        : Original ROCIS implementation
   Masaaki Saitow         : Open-shell DLPNO-CCSD energy and density
   Barbara Sandhoefer     : DKH picture change effects
   Avijit Sen             : IP-ROCIS
   Kantharuban Sivalingam : CASSCF convergence, NEVPT2, FIC-MRCI
   Bernardo de Souza      : ESD, SOC TD-DFT
   Georgi Stoychev        : AutoAux, RI-MP2 NMR, DLPNO-MP2 response
   Willem Van den Heuvel  : Paramagnetic NMR
   Boris Wezisla          : Elementary symmetry handling
   Frank Wennmohs         : Technical directorship


 We gratefully acknowledge several colleagues who have allowed us to
 interface, adapt or use parts of their codes:
   Stefan Grimme, W. Hujo, H. Kruse, P. Pracht,  : VdW corrections, initial TS optimization,
                  C. Bannwarth, S. Ehlert          DFT functionals, gCP, sTDA/sTD-DF
   Ed Valeev, F. Pavosevic, A. Kumar             : LibInt (2-el integral package), F12 methods
   Garnet Chan, S. Sharma, J. Yang, R. Olivares  : DMRG
   Ulf Ekstrom                                   : XCFun DFT Library
   Mihaly Kallay                                 : mrcc  (arbitrary order and MRCC methods)
   Jiri Pittner, Ondrej Demel                    : Mk-CCSD
   Frank Weinhold                                : gennbo (NPA and NBO analysis)
   Christopher J. Cramer and Donald G. Truhlar   : smd solvation model
   Lars Goerigk                                  : TD-DFT with DH, B97 family of functionals
   V. Asgeirsson, H. Jonsson                     : NEB implementation
   FAccTs GmbH                                   : IRC, NEB, NEB-TS, DLPNO-Multilevel, CI-OPT
                                                   MM, QMMM, 2- and 3-layer-ONIOM, Crystal-QMMM,
                                                   LR-CPCM, SF, NACMEs, symmetry and pop. for TD-DFT,
                                                   nearIR, NL-DFT gradient (VV10), updates on ESD,
                                                   ML-optimized integration grids
   S Lehtola, MJT Oliveira, MAL Marques          : LibXC Library
   Liviu Ungur et al                             : ANISO software


 Your calculation uses the libint2 library for the computation of 2-el integrals
 For citations please refer to: http://libint.valeyev.net

 Your ORCA version has been built with support for libXC version: 5.1.0
 For citations please refer to: https://tddft.org/programs/libxc/

 This ORCA versions uses:
   CBLAS   interface :  Fast vector & matrix operations
   LAPACKE interface :  Fast linear algebra routines
   SCALAPACK package :  Parallel linear algebra routines
   Shared memory     :  Shared parallel matrices
   BLAS/LAPACK       :  OpenBLAS 0.3.15  USE64BITINT DYNAMIC_ARCH NO_AFFINITY Haswell SINGLE_THREADED
        Core in use  :  Haswell
   Copyright (c) 2011-2014, The OpenBLAS Project


Your calculation utilizes the atom-pairwise dispersion correction
with the Becke-Johnson damping scheme (D3BJ)
Cite in your paper:
S.Grimme, S.Ehrlich, L.Goerigk, J Comput Chem, (2011), 32, 1456–1465 
S.Grimme, J.Antony, S.Ehrlich and H.Krieg, J.Chem.Phys., 132, (2010), 154104 
   

================================================================================

----- Orbital basis set information -----
Your calculation utilizes the basis: def2-SVP
   F. Weigend and R. Ahlrichs, Phys. Chem. Chem. Phys. 7, 3297 (2005).

----- AuxJ basis set information -----
Your calculation utilizes the auxiliary basis: def2/J
   F. Weigend, Phys. Chem. Chem. Phys. 8, 1057 (2006).

================================================================================
                                        WARNINGS
                       Please study these warnings very carefully!
================================================================================


WARNING: Geometry Optimization
  ===> : Switching off AutoStart
         For restart on a previous wavefunction, please use MOREAD

INFO   : the flag for use of the SHARK integral package has been found!

================================================================================
                                       INPUT FILE
================================================================================
NAME = p0_C6H10_conf1_opt_orca.inp
|  1> ! LooseOpt PBE0 RIJCOSX D3BJ def2-SVP def2/J 
|  2> %geom MaxIter 10 end
|  3> %output 
|  4> xyzfile=True 
|  5> end 
|  6> %scf 
|  7> maxiter 250 
|  8> end
|  9> %output
| 10> Print[P_Hirshfeld] = 1
| 11> end
| 12> % maxcore
| 13> 4000
| 14> *xyz 0 1
| 15> C   -0.88426379  -1.24663757  -0.17753754 
| 16> C    0.41845106  -1.45801772  -0.25874564 
| 17> C    1.44295967  -0.37436757  -0.11589782 
| 18> C    0.81139756   1.00825118  -0.25606656 
| 19> C   -0.45058555   1.08770182   0.59578024 
| 20> C   -1.48977933   0.10078853   0.07065260 
| 21> H   -1.58143581  -2.06433613  -0.30121408 
| 22> H    0.80326753  -2.45499236  -0.42703570 
| 23> H    2.22616270  -0.51034960  -0.86638929 
| 24> H    1.92076581  -0.46707754   0.86569829 
| 25> H    0.54882760   1.18246540  -1.30186869 
| 26> H    1.52483283   1.77787560   0.04538904 
| 27> H   -0.85711970   2.10122156   0.58299224 
| 28> H   -0.20163859   0.83711123   1.62938656 
| 29> H   -2.31465904   0.00600205   0.78189389 
| 30> H   -1.91708296   0.47426113  -0.86683752 
| 31> *
| 32> 
| 33>                          ****END OF INPUT****
================================================================================

                       *****************************
                       * Geometry Optimization Run *
                       *****************************

Geometry optimization settings:
Update method            Update   .... BFGS
Choice of coordinates    CoordSys .... Z-matrix Internals
Initial Hessian          InHess   .... Almoef's Model

Convergence Tolerances:
Energy Change            TolE     ....  3.0000e-05 Eh
Max. Gradient            TolMAXG  ....  2.0000e-03 Eh/bohr
RMS Gradient             TolRMSG  ....  5.0000e-04 Eh/bohr
Max. Displacement        TolMAXD  ....  1.0000e-02 bohr
RMS Displacement         TolRMSD  ....  7.0000e-03 bohr
Strict Convergence                ....  False
------------------------------------------------------------------------------
                        ORCA OPTIMIZATION COORDINATE SETUP
------------------------------------------------------------------------------

The optimization will be done in new redundant internal coordinates
Making redundant internal coordinates   ...  (new redundants) done
Evaluating the initial hessian          ...  (Almloef) done
Evaluating the coordinates              ...  done
Calculating the B-matrix                .... done
Calculating the G-matrix                .... done
Diagonalizing the G-matrix              .... done
The first mode is                       ....   47
The number of degrees of freedom        ....   42

    -----------------------------------------------------------------
                    Redundant Internal Coordinates


    -----------------------------------------------------------------
         Definition                    Initial Value    Approx d2E/dq
    -----------------------------------------------------------------
      1. B(C   1,C   0)                  1.3222         0.801366   
      2. B(C   2,C   1)                  1.4981         0.420013   
      3. B(C   3,C   2)                  1.5265         0.378432   
      4. B(C   4,C   3)                  1.5246         0.380990   
      5. B(C   5,C   4)                  1.5263         0.378647   
      6. B(C   5,C   0)                  1.4979         0.420279   
      7. B(H   6,C   0)                  1.0817         0.371312   
      8. B(H   7,C   1)                  1.0818         0.371067   
      9. B(H   8,C   2)                  1.0932         0.355862   
     10. B(H   9,C   2)                  1.0956         0.352717   
     11. B(H  10,C   3)                  1.0922         0.357144   
     12. B(H  11,C   3)                  1.0919         0.357630   
     13. B(H  12,C   4)                  1.0921         0.357349   
     14. B(H  13,C   4)                  1.0923         0.357074   
     15. B(H  14,C   5)                  1.0933         0.355779   
     16. B(H  15,C   5)                  1.0959         0.352402   
     17. A(C   5,C   0,H   6)          116.0026         0.332360   
     18. A(C   1,C   0,C   5)          123.5208         0.423894   
     19. A(C   1,C   0,H   6)          120.4739         0.370638   
     20. A(C   0,C   1,C   2)          123.5231         0.423846   
     21. A(C   0,C   1,H   7)          120.4862         0.370596   
     22. A(C   2,C   1,H   7)          115.9880         0.332289   
     23. A(C   3,C   2,H   9)          109.8366         0.323904   
     24. A(C   1,C   2,H   9)          108.8114         0.329512   
     25. A(C   1,C   2,C   3)          111.3139         0.371549   
     26. A(C   3,C   2,H   8)          110.2449         0.324376   
     27. A(H   8,C   2,H   9)          106.9829         0.289358   
     28. A(C   1,C   2,H   8)          109.5423         0.329996   
     29. A(C   2,C   3,C   4)          109.7766         0.365382   
     30. A(H  10,C   3,H  11)          107.9989         0.290150   
     31. A(C   2,C   3,H  11)          110.0443         0.324641   
     32. A(C   4,C   3,H  10)          109.1273         0.324927   
     33. A(C   2,C   3,H  10)          109.3811         0.324568   
     34. A(C   4,C   3,H  11)          110.4781         0.325000   
     35. A(H  12,C   4,H  13)          107.9889         0.290105   
     36. A(C   5,C   4,H  13)          109.4141         0.324588   
     37. A(C   3,C   4,H  13)          109.1531         0.324917   
     38. A(C   5,C   4,H  12)          110.0353         0.324629   
     39. A(C   3,C   4,H  12)          110.4837         0.324958   
     40. A(C   3,C   4,C   5)          109.7326         0.365417   
     41. A(H  14,C   5,H  15)          106.9707         0.289307   
     42. A(C   4,C   5,H  15)          109.8426         0.323887   
     43. A(C   0,C   5,H  15)          108.8100         0.329498   
     44. A(C   4,C   5,H  14)          110.2388         0.324394   
     45. A(C   0,C   5,H  14)          109.5600         0.330018   
     46. A(C   0,C   5,C   4)          111.3097         0.371626   
     47. D(C   2,C   1,C   0,C   5)     -0.1741         0.046423   
     48. D(H   7,C   1,C   0,C   5)    179.2044         0.046423   
     49. D(C   2,C   1,C   0,H   6)    179.2005         0.046423   
     50. D(H   7,C   1,C   0,H   6)     -1.4210         0.046423   
     51. D(H   9,C   2,C   1,H   7)    -73.9652         0.013045   
     52. D(H   9,C   2,C   1,C   0)    105.4390         0.013045   
     53. D(C   3,C   2,C   1,H   7)    164.8557         0.013045   
     54. D(C   3,C   2,C   1,C   0)    -15.7402         0.013045   
     55. D(H   8,C   2,C   1,C   0)   -137.9237         0.013045   
     56. D(H   8,C   2,C   1,H   7)     42.6722         0.013045   
     57. D(H  10,C   3,C   2,C   1)    -72.7270         0.011419   
     58. D(C   4,C   3,C   2,H   8)    168.7593         0.011419   
     59. D(C   4,C   3,C   2,C   1)     46.9831         0.011419   
     60. D(H  10,C   3,C   2,H   8)     49.0493         0.011419   
     61. D(C   4,C   3,C   2,H   9)    -73.5948         0.011419   
     62. D(H  11,C   3,C   2,H   9)     48.2036         0.011419   
     63. D(H  11,C   3,C   2,H   8)    -69.4423         0.011419   
     64. D(H  11,C   3,C   2,C   1)    168.7815         0.011419   
     65. D(H  10,C   3,C   2,H   9)    166.6951         0.011419   
     66. D(H  13,C   4,C   3,H  11)    -65.7653         0.011566   
     67. D(H  13,C   4,C   3,C   2)     55.7735         0.011566   
     68. D(H  12,C   4,C   3,H  11)     52.8379         0.011566   
     69. D(H  12,C   4,C   3,H  10)    -65.7584         0.011566   
     70. D(H  12,C   4,C   3,C   2)    174.3767         0.011566   
     71. D(C   5,C   4,C   3,H  11)    174.3402         0.011566   
     72. D(H  13,C   4,C   3,H  10)    175.6384         0.011566   
     73. D(C   5,C   4,C   3,C   2)    -64.1210         0.011566   
     74. D(C   5,C   4,C   3,H  10)     55.7439         0.011566   
     75. D(H  14,C   5,C   0,C   1)   -138.0831         0.013061   
     76. D(C   4,C   5,C   0,H   6)    164.7016         0.013061   
     77. D(C   4,C   5,C   0,C   1)    -15.8980         0.013061   
     78. D(H  15,C   5,C   4,H  12)     48.3115         0.011431   
     79. D(H  15,C   5,C   4,C   3)    -73.4595         0.011431   
     80. D(H  14,C   5,C   4,H  13)     49.1745         0.011431   
     81. D(H  14,C   5,C   4,H  12)    -69.3194         0.011431   
     82. D(H  14,C   5,C   4,C   3)    168.9097         0.011431   
     83. D(C   0,C   5,C   4,H  13)    -72.6171         0.011431   
     84. D(C   0,C   5,C   4,H  12)    168.8889         0.011431   
     85. D(C   0,C   5,C   4,C   3)     47.1180         0.011431   
     86. D(H  15,C   5,C   0,H   6)    -74.1153         0.013061   
     87. D(H  15,C   5,C   0,C   1)    105.2850         0.013061   
     88. D(H  15,C   5,C   4,H  13)    166.8054         0.011431   
     89. D(H  14,C   5,C   0,H   6)     42.5166         0.013061   
    -----------------------------------------------------------------

Number of atoms                         .... 16
Number of degrees of freedom            .... 89

         *************************************************************
         *                GEOMETRY OPTIMIZATION CYCLE   1            *
         *************************************************************
---------------------------------
CARTESIAN COORDINATES (ANGSTROEM)
---------------------------------
  C     -0.884264   -1.246638   -0.177538
  C      0.418451   -1.458018   -0.258746
  C      1.442960   -0.374368   -0.115898
  C      0.811398    1.008251   -0.256067
  C     -0.450586    1.087702    0.595780
  C     -1.489779    0.100789    0.070653
  H     -1.581436   -2.064336   -0.301214
  H      0.803268   -2.454992   -0.427036
  H      2.226163   -0.510350   -0.866389
  H      1.920766   -0.467078    0.865698
  H      0.548828    1.182465   -1.301869
  H      1.524833    1.777876    0.045389
  H     -0.857120    2.101222    0.582992
  H     -0.201639    0.837111    1.629387
  H     -2.314659    0.006002    0.781894
  H     -1.917083    0.474261   -0.866838

----------------------------
CARTESIAN COORDINATES (A.U.)
----------------------------
  NO LB      ZA    FRAG     MASS         X           Y           Z
   0 C     6.0000    0    12.011   -1.671016   -2.355804   -0.335497
   1 C     6.0000    0    12.011    0.790758   -2.755254   -0.488958
   2 C     6.0000    0    12.011    2.726799   -0.707452   -0.219015
   3 C     6.0000    0    12.011    1.533319    1.905319   -0.483896
   4 C     6.0000    0    12.011   -0.851483    2.055459    1.125861
   5 C     6.0000    0    12.011   -2.815275    0.190463    0.133514
   6 H     1.0000    0     1.008   -2.988481   -3.901030   -0.569212
   7 H     1.0000    0     1.008    1.517956   -4.639263   -0.806981
   8 H     1.0000    0     1.008    4.206838   -0.964421   -1.637238
   9 H     1.0000    0     1.008    3.629721   -0.882649    1.635933
  10 H     1.0000    0     1.008    1.037134    2.234536   -2.460175
  11 H     1.0000    0     1.008    2.881516    3.359698    0.085773
  12 H     1.0000    0     1.008   -1.619721    3.970733    1.101696
  13 H     1.0000    0     1.008   -0.381042    1.581911    3.079094
  14 H     1.0000    0     1.008   -4.374072    0.011342    1.477565
  15 H     1.0000    0     1.008   -3.622762    0.896224   -1.638086

--------------------------------
INTERNAL COORDINATES (ANGSTROEM)
--------------------------------
 C      0   0   0     0.000000000000     0.00000000     0.00000000
 C      1   0   0     1.322248956789     0.00000000     0.00000000
 C      2   1   0     1.498105817103   123.52307880     0.00000000
 C      3   2   1     1.526483731427   111.31387874   344.25979723
 C      4   3   2     1.524649712161   109.77660101    46.98312145
 C      1   2   3     1.497933412985   123.52079262   359.82589720
 H      1   2   3     1.081654125422   120.47387623   179.20053321
 H      2   1   3     1.081833486578   120.48621396   179.37845870
 H      3   2   1     1.093222550640   109.54226547   222.07633257
 H      3   2   1     1.095638977550   108.81138428   105.43895190
 H      4   3   2     1.092243413099   109.38106752   287.27304478
 H      4   3   2     1.091873212013   110.04426051   168.78152226
 H      5   4   3     1.092087822215   110.48373804   174.37673138
 H      5   4   3     1.092296780840   109.15312613    55.77347978
 H      6   1   2     1.093286415063   109.56003423   221.91692356
 H      6   1   2     1.095882247442   108.81002454   105.28500045

---------------------------
INTERNAL COORDINATES (A.U.)
---------------------------
 C      0   0   0     0.000000000000     0.00000000     0.00000000
 C      1   0   0     2.498688409195     0.00000000     0.00000000
 C      2   1   0     2.831009713959   123.52307880     0.00000000
 C      3   2   1     2.884636200284   111.31387874   344.25979723
 C      4   3   2     2.881170406146   109.77660101    46.98312145
 C      1   2   3     2.830683917391   123.52079262   359.82589720
 H      1   2   3     2.044030068674   120.47387623   179.20053321
 H      2   1   3     2.044369012137   120.48621396   179.37845870
 H      3   2   1     2.065891224136   109.54226547   222.07633257
 H      3   2   1     2.070457609218   108.81138428   105.43895190
 H      4   3   2     2.064040922336   109.38106752   287.27304478
 H      4   3   2     2.063341343670   110.04426051   168.78152226
 H      5   4   3     2.063746898176   110.48373804   174.37673138
 H      5   4   3     2.064141772752   109.15312613    55.77347978
 H      6   1   2     2.066011910406   109.56003423   221.91692356
 H      6   1   2     2.070917322692   108.81002454   105.28500045

---------------------
BASIS SET INFORMATION
---------------------
There are 2 groups of distinct atoms

 Group   1 Type C   : 7s4p1d contracted to 3s2p1d pattern {511/31/1}
 Group   2 Type H   : 4s1p contracted to 2s1p pattern {31/1}

Atom   0C    basis set group =>   1
Atom   1C    basis set group =>   1
Atom   2C    basis set group =>   1
Atom   3C    basis set group =>   1
Atom   4C    basis set group =>   1
Atom   5C    basis set group =>   1
Atom   6H    basis set group =>   2
Atom   7H    basis set group =>   2
Atom   8H    basis set group =>   2
Atom   9H    basis set group =>   2
Atom  10H    basis set group =>   2
Atom  11H    basis set group =>   2
Atom  12H    basis set group =>   2
Atom  13H    basis set group =>   2
Atom  14H    basis set group =>   2
Atom  15H    basis set group =>   2
---------------------------------
AUXILIARY/J BASIS SET INFORMATION
---------------------------------
There are 2 groups of distinct atoms

 Group   1 Type C   : 12s5p4d2f1g contracted to 6s4p3d1f1g pattern {711111/2111/211/2/1}
 Group   2 Type H   : 5s2p1d contracted to 3s1p1d pattern {311/2/1}

Atom   0C    basis set group =>   1
Atom   1C    basis set group =>   1
Atom   2C    basis set group =>   1
Atom   3C    basis set group =>   1
Atom   4C    basis set group =>   1
Atom   5C    basis set group =>   1
Atom   6H    basis set group =>   2
Atom   7H    basis set group =>   2
Atom   8H    basis set group =>   2
Atom   9H    basis set group =>   2
Atom  10H    basis set group =>   2
Atom  11H    basis set group =>   2
Atom  12H    basis set group =>   2
Atom  13H    basis set group =>   2
Atom  14H    basis set group =>   2
Atom  15H    basis set group =>   2
------------------------------------------------------------------------------
                           ORCA GTO INTEGRAL CALCULATION
                           -- RI-GTO INTEGRALS CHOSEN --
------------------------------------------------------------------------------
------------------------------------------------------------------------------
                   ___                                                        
                  /   \      - P O W E R E D   B Y -                         
                 /     \                                                     
                 |  |  |   _    _      __       _____    __    __             
                 |  |  |  | |  | |    /  \     |  _  \  |  |  /  |          
                  \  \/   | |  | |   /    \    | | | |  |  | /  /          
                 / \  \   | |__| |  /  /\  \   | |_| |  |  |/  /          
                |  |  |   |  __  | /  /__\  \  |    /   |      \           
                |  |  |   | |  | | |   __   |  |    \   |  |\   \          
                \     /   | |  | | |  |  |  |  | |\  \  |  | \   \       
                 \___/    |_|  |_| |__|  |__|  |_| \__\ |__|  \__/        
                                                                              
                      - O R C A' S   B I G   F R I E N D -                    
                                      &                                       
                       - I N T E G R A L  F E E D E R -                       
                                                                              
 v1 FN, 2020, v2 2021                                                         
------------------------------------------------------------------------------


Reading SHARK input file p0_C6H10_conf1_opt_orca.SHARKINP.tmp ... ok
----------------------
SHARK INTEGRAL PACKAGE
----------------------

Number of atoms                             ...     16
Number of basis functions                   ...    134
Number of shells                            ...     66
Maximum angular momentum                    ...      2
Integral batch strategy                     ... SHARK/LIBINT Hybrid
RI-J (if used) integral strategy            ... SPLIT-RIJ (Revised 2003 algorithm where possible)
Printlevel                                  ...      1
Contraction scheme used                     ... SEGMENTED contraction
Coulomb Range Separation                    ... NOT USED
Exchange Range Separation                   ... NOT USED
Finite Nucleus Model                        ... NOT USED
Auxiliary Coulomb fitting basis             ... AVAILABLE
   # of basis functions in Aux-J            ...    404
   # of shells in Aux-J                     ...    140
   Maximum angular momentum in Aux-J        ...      4
Auxiliary J/K fitting basis                 ... NOT available
Auxiliary Correlation fitting basis         ... NOT available
Auxiliary 'external' fitting basis          ... NOT available
Integral threshold                          ...     2.500000e-11
Primitive cut-off                           ...     2.500000e-12
Primitive pair pre-selection threshold      ...     2.500000e-12

Calculating pre-screening integrals         ... done (  0.0 sec) Dimension = 66
Organizing shell pair data                  ... done (  0.0 sec)
Shell pair information
Total number of shell pairs                 ...      2211
Shell pairs after pre-screening             ...      2186
Total number of primitive shell pairs       ...      7611
Primitive shell pairs kept                  ...      5969
          la=0 lb=0:    732 shell pairs
          la=1 lb=0:    823 shell pairs
          la=1 lb=1:    250 shell pairs
          la=2 lb=0:    228 shell pairs
          la=2 lb=1:    132 shell pairs
          la=2 lb=2:     21 shell pairs

Calculating one electron integrals          ... done (  0.0 sec)
Calculating RI/J V-Matrix + Cholesky decomp.... done (  0.0 sec)
Calculating Nuclear repulsion               ... done (  0.0 sec) ENN=    238.432836747773 Eh

SHARK setup successfully completed in   0.2 seconds

Maximum memory used throughout the entire GTOINT-calculation: 16.5 MB
-------------------------------------------------------------------------------
                                 ORCA SCF
-------------------------------------------------------------------------------

------------
SCF SETTINGS
------------
Hamiltonian:
 Density Functional     Method          .... DFT(GTOs)
 Exchange Functional    Exchange        .... PBE
   PBE kappa parameter   XKappa         ....  0.804000
   PBE mue parameter    XMuePBE         ....  0.219520
 Correlation Functional Correlation     .... PBE
   PBE beta parameter  CBetaPBE         ....  0.066725
 LDA part of GGA corr.  LDAOpt          .... PW91-LDA
 Gradients option       PostSCFGGA      .... off
 Hybrid DFT is turned on
   Fraction HF Exchange ScalHFX         ....  0.250000
   Scaling of DF-GGA-X  ScalDFX         ....  0.750000
   Scaling of DF-GGA-C  ScalDFC         ....  1.000000
   Scaling of DF-LDA-C  ScalLDAC        ....  1.000000
   Perturbative correction              ....  0.000000
   Density functional embedding theory  .... OFF
   NL short-range parameter             ....  6.900000
 RI-approximation to the Coulomb term is turned on
   Number of AuxJ basis functions       .... 404
   RIJ-COSX (HFX calculated with COS-X)).... on


General Settings:
 Integral files         IntName         .... p0_C6H10_conf1_opt_orca
 Hartree-Fock type      HFTyp           .... RHF
 Total Charge           Charge          ....    0
 Multiplicity           Mult            ....    1
 Number of Electrons    NEL             ....   46
 Basis Dimension        Dim             ....  134
 Nuclear Repulsion      ENuc            ....    238.4328367478 Eh

Convergence Acceleration:
 DIIS                   CNVDIIS         .... on
   Start iteration      DIISMaxIt       ....    12
   Startup error        DIISStart       ....  0.200000
   # of expansion vecs  DIISMaxEq       ....     5
   Bias factor          DIISBfac        ....   1.050
   Max. coefficient     DIISMaxC        ....  10.000
 Trust-Rad. Augm. Hess. CNVTRAH         .... auto
   Auto Start mean grad. ratio tolernc. ....  1.125000
   Auto Start start iteration           ....    20
   Auto Start num. interpolation iter.  ....    10
   Max. Number of Micro iterations      ....    16
   Max. Number of Macro iterations      .... Maxiter - #DIIS iter
   Number of Davidson start vectors     ....     2
   Converg. threshold I  (grad. norm)   ....   1.000e-05
   Converg. threshold II (energy diff.) ....   1.000e-08
   Grad. Scal. Fac. for Micro threshold ....   0.100
   Minimum threshold for Micro iter.    ....   0.010
   NR start threshold (gradient norm)   ....   0.001
   Initial trust radius                 ....   0.400
   Minimum AH scaling param. (alpha)    ....   1.000
   Maximum AH scaling param. (alpha)    .... 1000.000
   Orbital update algorithm             .... Taylor
   White noise on init. David. guess    .... on
   Maximum white noise                  ....   0.010
   Quad. conv. algorithm                .... NR
 SOSCF                  CNVSOSCF        .... on
   Start iteration      SOSCFMaxIt      ....   150
   Startup grad/error   SOSCFStart      ....  0.003300
 Level Shifting         CNVShift        .... on
   Level shift para.    LevelShift      ....    0.2500
   Turn off err/grad.   ShiftErr        ....    0.0010
 Zerner damping         CNVZerner       .... off
 Static damping         CNVDamp         .... on
   Fraction old density DampFac         ....    0.7000
   Max. Damping (<1)    DampMax         ....    0.9800
   Min. Damping (>=0)   DampMin         ....    0.0000
   Turn off err/grad.   DampErr         ....    0.1000
 Fernandez-Rico         CNVRico         .... off

SCF Procedure:
 Maximum # iterations   MaxIter         ....   250
 SCF integral mode      SCFMode         .... Direct
   Integral package                     .... SHARK and LIBINT hybrid scheme
 Reset frequency        DirectResetFreq ....    20
 Integral Threshold     Thresh          ....  2.500e-11 Eh
 Primitive CutOff       TCut            ....  2.500e-12 Eh

Convergence Tolerance:
 Convergence Check Mode ConvCheckMode   .... Total+1el-Energy
 Convergence forced     ConvForced      .... 0
 Energy Change          TolE            ....  1.000e-08 Eh
 1-El. energy change                    ....  1.000e-05 Eh
 Orbital Gradient       TolG            ....  1.000e-05
 Orbital Rotation angle TolX            ....  1.000e-05
 DIIS Error             TolErr          ....  5.000e-07


Diagonalization of the overlap matrix:
Smallest eigenvalue                        ... 1.008e-03
Time for diagonalization                   ...    0.003 sec
Threshold for overlap eigenvalues          ... 1.000e-08
Number of eigenvalues below threshold      ... 0
Time for construction of square roots      ...    0.001 sec
Total time needed                          ...    0.004 sec

Time for model grid setup =    0.146 sec

------------------------------
INITIAL GUESS: MODEL POTENTIAL
------------------------------
Loading Hartree-Fock densities                     ... done
Calculating cut-offs                               ... done
Initializing the effective Hamiltonian             ... done
Setting up the integral package (SHARK)            ... done
Starting the Coulomb interaction                   ... done (   0.1 sec)
Reading the grid                                   ... done
Mapping shells                                     ... done
Starting the XC term evaluation                    ... done (   0.2 sec)
  promolecular density results
     # of electrons  =     45.998467106
     EX              =    -33.653588868
     EC              =     -1.503822281
     EX+EC           =    -35.157411149
Transforming the Hamiltonian                       ... done (   0.0 sec)
Diagonalizing the Hamiltonian                      ... done (   0.0 sec)
Back transforming the eigenvectors                 ... done (   0.0 sec)
Now organizing SCF variables                       ... done
                      ------------------
                      INITIAL GUESS DONE (   0.4 sec)
                      ------------------
-------------------
DFT GRID GENERATION
-------------------

General Integration Accuracy     IntAcc      ... 4.388
Radial Grid Type                 RadialGrid  ... OptM3 with GC (2021)
Angular Grid (max. ang.)         AngularGrid ... 4 (Lebedev-302)
Angular grid pruning method      GridPruning ... 4 (adaptive)
Weight generation scheme         WeightScheme... Becke
Basis function cutoff            BFCut       ... 1.0000e-11
Integration weight cutoff        WCut        ... 1.0000e-14
Angular grids for H and He will be reduced by one unit
Partially contracted basis set               ... off
Rotationally invariant grid construction     ... off

Total number of grid points                  ...    68034
Total number of batches                      ...     1071
Average number of points per batch           ...       63
Average number of grid points per atom       ...     4252
Time for grid setup =    0.603 sec

--------------------
COSX GRID GENERATION
--------------------

GRIDX 1
-------
General Integration Accuracy     IntAcc      ... 3.816
Radial Grid Type                 RadialGrid  ... OptM3 with GC (2021)
Angular Grid (max. ang.)         AngularGrid ... 1 (Lebedev-50)
Angular grid pruning method      GridPruning ... 4 (adaptive)
Weight generation scheme         WeightScheme... Becke
Basis function cutoff            BFCut       ... 1.0000e-11
Integration weight cutoff        WCut        ... 1.0000e-14
Angular grids for H and He will be reduced by one unit
Partially contracted basis set               ... on
Rotationally invariant grid construction     ... off

Total number of grid points                  ...     8748
Total number of batches                      ...      146
Average number of points per batch           ...       59
Average number of grid points per atom       ...      547
UseSFitting                                  ... on

GRIDX 2
-------
General Integration Accuracy     IntAcc      ... 4.020
Radial Grid Type                 RadialGrid  ... OptM3 with GC (2021)
Angular Grid (max. ang.)         AngularGrid ... 2 (Lebedev-110)
Angular grid pruning method      GridPruning ... 4 (adaptive)
Weight generation scheme         WeightScheme... Becke
Basis function cutoff            BFCut       ... 1.0000e-11
Integration weight cutoff        WCut        ... 1.0000e-14
Angular grids for H and He will be reduced by one unit
Partially contracted basis set               ... on
Rotationally invariant grid construction     ... off

Total number of grid points                  ...    18304
Total number of batches                      ...      293
Average number of points per batch           ...       62
Average number of grid points per atom       ...     1144
UseSFitting                                  ... on

GRIDX 3
-------
General Integration Accuracy     IntAcc      ... 4.338
Radial Grid Type                 RadialGrid  ... OptM3 with GC (2021)
Angular Grid (max. ang.)         AngularGrid ... 3 (Lebedev-194)
Angular grid pruning method      GridPruning ... 4 (adaptive)
Weight generation scheme         WeightScheme... Becke
Basis function cutoff            BFCut       ... 1.0000e-11
Integration weight cutoff        WCut        ... 1.0000e-14
Angular grids for H and He will be reduced by one unit
Partially contracted basis set               ... on
Rotationally invariant grid construction     ... off

Total number of grid points                  ...    40026
Total number of batches                      ...      635
Average number of points per batch           ...       63
Average number of grid points per atom       ...     2502
UseSFitting                                  ... on

Time for X-Grid setup             =    0.677 sec

--------------
SCF ITERATIONS
--------------
ITER       Energy         Delta-E        Max-DP      RMS-DP      [F,P]     Damp
               ***  Starting incremental Fock matrix formation  ***
  0   -234.0233857579   0.000000000000 0.06057382  0.00237344  0.1409831 0.7000
  1   -234.0999216725  -0.076535914651 0.03793949  0.00169906  0.0772600 0.7000
                               ***Turning on DIIS***
  2   -234.1329027427  -0.032981070193 0.05808475  0.00303244  0.0328499 0.0000
  3   -234.1802755219  -0.047372779195 0.02525676  0.00119186  0.0381994 0.0000
  4   -234.1928365108  -0.012560988874 0.00492684  0.00027969  0.0063945 0.0000
                      *** Initiating the SOSCF procedure ***
                           *** Shutting down DIIS ***
                      *** Re-Reading the Fockian *** 
                      *** Removing any level shift *** 
ITER      Energy       Delta-E        Grad      Rot      Max-DP    RMS-DP
  5   -234.19326354  -0.0004270280  0.000594  0.000594  0.001672  0.000099
               *** Restarting incremental Fock matrix formation ***
  6   -234.19328651  -0.0000229665  0.000236  0.000508  0.001222  0.000066
  7   -234.19328760  -0.0000010962  0.000283  0.000180  0.000443  0.000016
  8   -234.19328897  -0.0000013660  0.000024  0.000034  0.000095  0.000006
  9   -234.19328899  -0.0000000208  0.000013  0.000009  0.000033  0.000002
 10   -234.19328900  -0.0000000078  0.000004  0.000006  0.000011  0.000001
 11   -234.19328900   0.0000000007  0.000003  0.000003  0.000005  0.000000
                 **** Energy Check signals convergence ****
              ***Rediagonalizing the Fockian in SOSCF/NRSCF***

               *****************************************************
               *                     SUCCESS                       *
               *           SCF CONVERGED AFTER  12 CYCLES          *
               *****************************************************

Old exchange energy                            =     -8.665343616 Eh
New exchange energy                            =     -8.665306985 Eh
Exchange energy change after final integration =      0.000036631 Eh
Total energy after final integration           =   -234.193252366 Eh
Final COS-X integration done in                =     5.453 sec

----------------
TOTAL SCF ENERGY
----------------

Total Energy       :         -234.19325237 Eh           -6372.72238 eV

Components:
Nuclear Repulsion  :          238.43283675 Eh            6488.08734 eV
Electronic Energy  :         -472.62608911 Eh          -12860.80972 eV
One Electron Energy:         -786.32363205 Eh          -21396.95383 eV
Two Electron Energy:          313.69754294 Eh            8536.14411 eV
Max COSX asymmetry :            0.00000276 Eh               0.00008 eV

Virial components:
Potential Energy   :         -465.83742066 Eh          -12676.08066 eV
Kinetic Energy     :          231.64416830 Eh            6303.35828 eV
Virial Ratio       :            2.01100431


DFT components:
N(Alpha)           :       23.000029812637 electrons
N(Beta)            :       23.000029812637 electrons
N(Total)           :       46.000059625273 electrons
E(X)               :      -25.844522806018 Eh       
E(C)               :       -1.514423760389 Eh       
E(XC)              :      -27.358946566407 Eh       
DFET-embed. en.    :        0.000000000000 Eh       

---------------
SCF CONVERGENCE
---------------

  Last Energy change         ...   -2.3920e-09  Tolerance :   1.0000e-08
  Last MAX-Density change    ...    3.9968e-15  Tolerance :   1.0000e-07
  Last RMS-Density change    ...    5.4724e-17  Tolerance :   5.0000e-09
  Last Orbital Gradient      ...    2.6775e-07  Tolerance :   1.0000e-05
  Last Orbital Rotation      ...    9.2691e-07  Tolerance :   1.0000e-05

             **** THE GBW FILE WAS UPDATED (p0_C6H10_conf1_opt_orca.gbw) ****
             **** DENSITY p0_C6H10_conf1_opt_orca.scfp WAS UPDATED ****
             **** ENERGY FILE WAS UPDATED (p0_C6H10_conf1_opt_orca.en.tmp) ****
             **** THE GBW FILE WAS UPDATED (p0_C6H10_conf1_opt_orca.gbw) ****
             **** DENSITY p0_C6H10_conf1_opt_orca.scfp WAS UPDATED ****
----------------
ORBITAL ENERGIES
----------------

  NO   OCC          E(Eh)            E(eV) 
   0   2.0000     -10.225798      -278.2581 
   1   2.0000     -10.225771      -278.2574 
   2   2.0000     -10.222738      -278.1749 
   3   2.0000     -10.222595      -278.1709 
   4   2.0000     -10.220801      -278.1221 
   5   2.0000     -10.219912      -278.0980 
   6   2.0000      -0.853004       -23.2114 
   7   2.0000      -0.755617       -20.5614 
   8   2.0000      -0.753902       -20.5147 
   9   2.0000      -0.628981       -17.1155 
  10   2.0000      -0.608954       -16.5705 
  11   2.0000      -0.522805       -14.2262 
  12   2.0000      -0.508170       -13.8280 
  13   2.0000      -0.455179       -12.3860 
  14   2.0000      -0.439626       -11.9628 
  15   2.0000      -0.421556       -11.4711 
  16   2.0000      -0.399609       -10.8739 
  17   2.0000      -0.391758       -10.6603 
  18   2.0000      -0.389085       -10.5875 
  19   2.0000      -0.338707        -9.2167 
  20   2.0000      -0.324555        -8.8316 
  21   2.0000      -0.311068        -8.4646 
  22   2.0000      -0.252241        -6.8638 
  23   0.0000       0.031858         0.8669 
  24   0.0000       0.069581         1.8934 
  25   0.0000       0.101694         2.7672 
  26   0.0000       0.108956         2.9649 
  27   0.0000       0.113511         3.0888 
  28   0.0000       0.140762         3.8303 
  29   0.0000       0.144282         3.9261 
  30   0.0000       0.155644         4.2353 
  31   0.0000       0.164487         4.4759 
  32   0.0000       0.171712         4.6725 
  33   0.0000       0.184470         5.0197 
  34   0.0000       0.226770         6.1707 
  35   0.0000       0.242632         6.6023 
  36   0.0000       0.257164         6.9978 
  37   0.0000       0.264124         7.1872 
  38   0.0000       0.323688         8.8080 
  39   0.0000       0.408857        11.1256 
  40   0.0000       0.419136        11.4053 
  41   0.0000       0.445322        12.1178 
  42   0.0000       0.452141        12.3034 
  43   0.0000       0.459244        12.4967 
  44   0.0000       0.476801        12.9744 
  45   0.0000       0.510985        13.9046 
  46   0.0000       0.554325        15.0840 
  47   0.0000       0.575044        15.6477 
  48   0.0000       0.592710        16.1284 
  49   0.0000       0.628460        17.1013 
  50   0.0000       0.642925        17.4949 
  51   0.0000       0.646500        17.5922 
  52   0.0000       0.659568        17.9478 
  53   0.0000       0.663422        18.0526 
  54   0.0000       0.682984        18.5849 
  55   0.0000       0.686043        18.6682 
  56   0.0000       0.698460        19.0061 
  57   0.0000       0.705577        19.1997 
  58   0.0000       0.710291        19.3280 
  59   0.0000       0.713937        19.4272 
  60   0.0000       0.718688        19.5565 
  61   0.0000       0.730844        19.8873 
  62   0.0000       0.735219        20.0063 
  63   0.0000       0.740358        20.1462 
  64   0.0000       0.743437        20.2300 
  65   0.0000       0.768600        20.9147 
  66   0.0000       0.827815        22.5260 
  67   0.0000       0.839380        22.8407 
  68   0.0000       0.893347        24.3092 
  69   0.0000       1.021462        27.7954 
  70   0.0000       1.043274        28.3889 
  71   0.0000       1.077033        29.3076 
  72   0.0000       1.157086        31.4859 
  73   0.0000       1.181603        32.1530 
  74   0.0000       1.245219        33.8841 
  75   0.0000       1.273541        34.6548 
  76   0.0000       1.304789        35.5051 
  77   0.0000       1.320011        35.9193 
  78   0.0000       1.341068        36.4923 
  79   0.0000       1.502164        40.8759 
  80   0.0000       1.571003        42.7492 
  81   0.0000       1.577724        42.9320 
  82   0.0000       1.604728        43.6669 
  83   0.0000       1.661748        45.2185 
  84   0.0000       1.667959        45.3875 
  85   0.0000       1.727142        46.9979 
  86   0.0000       1.756982        47.8099 
  87   0.0000       1.768717        48.1292 
  88   0.0000       1.785241        48.5789 
  89   0.0000       1.813366        49.3442 
  90   0.0000       1.819177        49.5023 
  91   0.0000       1.831424        49.8356 
  92   0.0000       1.847819        50.2817 
  93   0.0000       1.858029        50.5596 
  94   0.0000       1.864486        50.7353 
  95   0.0000       1.883200        51.2445 
  96   0.0000       1.895402        51.5765 
  97   0.0000       1.908089        51.9217 
  98   0.0000       1.908406        51.9304 
  99   0.0000       1.936494        52.6947 
 100   0.0000       1.948009        53.0080 
 101   0.0000       1.978220        53.8301 
 102   0.0000       1.987382        54.0794 
 103   0.0000       2.044324        55.6289 
 104   0.0000       2.076363        56.5007 
 105   0.0000       2.090869        56.8954 
 106   0.0000       2.158382        58.7326 
 107   0.0000       2.178714        59.2858 
 108   0.0000       2.223096        60.4935 
 109   0.0000       2.257074        61.4181 
 110   0.0000       2.271288        61.8049 
 111   0.0000       2.314343        62.9765 
 112   0.0000       2.410200        65.5849 
 113   0.0000       2.422299        65.9141 
 114   0.0000       2.445598        66.5481 
 115   0.0000       2.493621        67.8549 
 116   0.0000       2.504639        68.1547 
 117   0.0000       2.611718        71.0685 
 118   0.0000       2.631777        71.6143 
 119   0.0000       2.633546        71.6624 
 120   0.0000       2.651358        72.1471 
 121   0.0000       2.676670        72.8359 
 122   0.0000       2.748916        74.8018 
 123   0.0000       2.807962        76.4085 
 124   0.0000       2.871114        78.1270 
 125   0.0000       2.936685        79.9113 
 126   0.0000       2.967250        80.7430 
 127   0.0000       2.969294        80.7986 
 128   0.0000       3.025567        82.3299 
 129   0.0000       3.051352        83.0315 
 130   0.0000       3.061534        83.3086 
 131   0.0000       3.079732        83.8038 
 132   0.0000       3.131569        85.2143 
 133   0.0000       3.365671        91.5846 

                    ********************************
                    * MULLIKEN POPULATION ANALYSIS *
                    ********************************

-----------------------
MULLIKEN ATOMIC CHARGES
-----------------------
   0 C :   -0.102750
   1 C :   -0.102762
   2 C :    0.010641
   3 C :   -0.067413
   4 C :   -0.067362
   5 C :    0.010517
   6 H :    0.015910
   7 H :    0.015763
   8 H :    0.036471
   9 H :    0.042841
  10 H :    0.035367
  11 H :    0.028963
  12 H :    0.028875
  13 H :    0.035475
  14 H :    0.036447
  15 H :    0.043017
Sum of atomic charges:   -0.0000000

--------------------------------
MULLIKEN REDUCED ORBITAL CHARGES
--------------------------------
  0 C s       :     3.148769  s :     3.148769
      pz      :     1.008428  p :     2.917571
      px      :     0.967497
      py      :     0.941646
      dz2     :     0.002467  d :     0.036409
      dxz     :     0.007660
      dyz     :     0.003065
      dx2y2   :     0.009464
      dxy     :     0.013754
  1 C s       :     3.149074  s :     3.149074
      pz      :     1.003532  p :     2.917286
      px      :     0.989455
      py      :     0.924299
      dz2     :     0.002472  d :     0.036402
      dxz     :     0.008748
      dyz     :     0.001780
      dx2y2   :     0.011385
      dxy     :     0.012018
  2 C s       :     2.978296  s :     2.978296
      pz      :     1.011528  p :     2.974175
      px      :     1.007119
      py      :     0.955527
      dz2     :     0.006295  d :     0.036888
      dxz     :     0.009495
      dyz     :     0.004557
      dx2y2   :     0.007518
      dxy     :     0.009024
  3 C s       :     3.057155  s :     3.057155
      pz      :     1.004794  p :     2.973648
      px      :     0.972834
      py      :     0.996020
      dz2     :     0.009482  d :     0.036610
      dxz     :     0.006688
      dyz     :     0.004100
      dx2y2   :     0.006149
      dxy     :     0.010191
  4 C s       :     3.057364  s :     3.057364
      pz      :     1.007008  p :     2.973386
      px      :     0.961930
      py      :     1.004448
      dz2     :     0.009702  d :     0.036612
      dxz     :     0.007665
      dyz     :     0.003216
      dx2y2   :     0.007540
      dxy     :     0.008489
  5 C s       :     2.978260  s :     2.978260
      pz      :     1.006418  p :     2.974323
      px      :     1.008276
      py      :     0.959629
      dz2     :     0.005668  d :     0.036900
      dxz     :     0.009336
      dyz     :     0.006135
      dx2y2   :     0.007938
      dxy     :     0.007822
  6 H s       :     0.960386  s :     0.960386
      pz      :     0.005029  p :     0.023703
      px      :     0.008559
      py      :     0.010115
  7 H s       :     0.960541  s :     0.960541
      pz      :     0.005187  p :     0.023697
      px      :     0.005133
      py      :     0.013377
  8 H s       :     0.940315  s :     0.940315
      pz      :     0.009671  p :     0.023215
      px      :     0.009373
      py      :     0.004171
  9 H s       :     0.933732  s :     0.933732
      pz      :     0.012763  p :     0.023427
      px      :     0.006477
      py      :     0.004186
 10 H s       :     0.941766  s :     0.941766
      pz      :     0.013560  p :     0.022867
      px      :     0.004855
      py      :     0.004452
 11 H s       :     0.948155  s :     0.948155
      pz      :     0.005407  p :     0.022882
      px      :     0.008391
      py      :     0.009085
 12 H s       :     0.948250  s :     0.948250
      pz      :     0.004560  p :     0.022875
      px      :     0.005442
      py      :     0.012873
 13 H s       :     0.941665  s :     0.941665
      pz      :     0.013170  p :     0.022860
      px      :     0.004619
      py      :     0.005072
 14 H s       :     0.940346  s :     0.940346
      pz      :     0.009133  p :     0.023207
      px      :     0.009800
      py      :     0.004274
 15 H s       :     0.933567  s :     0.933567
      pz      :     0.011988  p :     0.023417
      px      :     0.005992
      py      :     0.005436


                     *******************************
                     * LOEWDIN POPULATION ANALYSIS *
                     *******************************

----------------------
LOEWDIN ATOMIC CHARGES
----------------------
   0 C :   -0.049841
   1 C :   -0.049787
   2 C :   -0.047666
   3 C :   -0.042433
   4 C :   -0.042429
   5 C :   -0.047747
   6 H :    0.024471
   7 H :    0.024463
   8 H :    0.031655
   9 H :    0.033691
  10 H :    0.025486
  11 H :    0.024616
  12 H :    0.024634
  13 H :    0.025496
  14 H :    0.031631
  15 H :    0.033761

-------------------------------
LOEWDIN REDUCED ORBITAL CHARGES
-------------------------------
  0 C s       :     2.864095  s :     2.864095
      pz      :     0.982398  p :     3.093235
      px      :     1.084012
      py      :     1.026824
      dz2     :     0.005829  d :     0.092511
      dxz     :     0.015198
      dyz     :     0.005862
      dx2y2   :     0.027430
      dxy     :     0.038193
  1 C s       :     2.864173  s :     2.864173
      pz      :     0.982838  p :     3.093124
      px      :     1.081291
      py      :     1.028995
      dz2     :     0.005833  d :     0.092489
      dxz     :     0.017149
      dyz     :     0.003292
      dx2y2   :     0.031075
      dxy     :     0.035139
  2 C s       :     2.830182  s :     2.830182
      pz      :     1.061132  p :     3.125519
      px      :     1.037102
      py      :     1.027285
      dz2     :     0.016718  d :     0.091966
      dxz     :     0.024330
      dyz     :     0.008790
      dx2y2   :     0.017579
      dxy     :     0.024548
  3 C s       :     2.834785  s :     2.834785
      pz      :     1.055376  p :     3.117642
      px      :     1.033276
      py      :     1.028990
      dz2     :     0.023634  d :     0.090007
      dxz     :     0.017320
      dyz     :     0.008413
      dx2y2   :     0.015717
      dxy     :     0.024922
  4 C s       :     2.834823  s :     2.834823
      pz      :     1.050330  p :     3.117595
      px      :     1.025185
      py      :     1.042080
      dz2     :     0.023439  d :     0.090012
      dxz     :     0.019553
      dyz     :     0.007293
      dx2y2   :     0.018370
      dxy     :     0.021356
  5 C s       :     2.830185  s :     2.830185
      pz      :     1.057680  p :     3.125572
      px      :     1.035954
      py      :     1.031938
      dz2     :     0.013746  d :     0.091990
      dxz     :     0.023968
      dyz     :     0.014597
      dx2y2   :     0.018504
      dxy     :     0.021176
  6 H s       :     0.904899  s :     0.904899
      pz      :     0.015946  p :     0.070630
      px      :     0.023742
      py      :     0.030942
  7 H s       :     0.904942  s :     0.904942
      pz      :     0.016240  p :     0.070596
      px      :     0.015461
      py      :     0.038894
  8 H s       :     0.900441  s :     0.900441
      pz      :     0.026334  p :     0.067904
      px      :     0.027357
      py      :     0.014214
  9 H s       :     0.898266  s :     0.898266
      pz      :     0.035411  p :     0.068043
      px      :     0.018734
      py      :     0.013898
 10 H s       :     0.906552  s :     0.906552
      pz      :     0.038831  p :     0.067962
      px      :     0.015066
      py      :     0.014065
 11 H s       :     0.907555  s :     0.907555
      pz      :     0.015328  p :     0.067829
      px      :     0.025411
      py      :     0.027089
 12 H s       :     0.907578  s :     0.907578
      pz      :     0.013230  p :     0.067788
      px      :     0.017733
      py      :     0.036825
 13 H s       :     0.906552  s :     0.906552
      pz      :     0.038174  p :     0.067952
      px      :     0.015135
      py      :     0.014643
 14 H s       :     0.900479  s :     0.900479
      pz      :     0.025035  p :     0.067890
      px      :     0.028977
      py      :     0.013879
 15 H s       :     0.898237  s :     0.898237
      pz      :     0.033571  p :     0.068002
      px      :     0.017538
      py      :     0.016893


                      *****************************
                      * MAYER POPULATION ANALYSIS *
                      *****************************

  NA   - Mulliken gross atomic population
  ZA   - Total nuclear charge
  QA   - Mulliken gross atomic charge
  VA   - Mayer's total valence
  BVA  - Mayer's bonded valence
  FA   - Mayer's free valence

  ATOM       NA         ZA         QA         VA         BVA        FA
  0 C      6.1027     6.0000    -0.1027     4.0054     4.0054    -0.0000
  1 C      6.1028     6.0000    -0.1028     4.0052     4.0052     0.0000
  2 C      5.9894     6.0000     0.0106     3.9685     3.9685    -0.0000
  3 C      6.0674     6.0000    -0.0674     4.0614     4.0614     0.0000
  4 C      6.0674     6.0000    -0.0674     4.0610     4.0610     0.0000
  5 C      5.9895     6.0000     0.0105     3.9685     3.9685    -0.0000
  6 H      0.9841     1.0000     0.0159     0.9831     0.9831    -0.0000
  7 H      0.9842     1.0000     0.0158     0.9831     0.9831     0.0000
  8 H      0.9635     1.0000     0.0365     0.9758     0.9758    -0.0000
  9 H      0.9572     1.0000     0.0428     0.9770     0.9770    -0.0000
 10 H      0.9646     1.0000     0.0354     0.9741     0.9741     0.0000
 11 H      0.9710     1.0000     0.0290     0.9732     0.9732     0.0000
 12 H      0.9711     1.0000     0.0289     0.9732     0.9732    -0.0000
 13 H      0.9645     1.0000     0.0355     0.9740     0.9740    -0.0000
 14 H      0.9636     1.0000     0.0364     0.9757     0.9757    -0.0000
 15 H      0.9570     1.0000     0.0430     0.9770     0.9770    -0.0000

  Mayer bond orders larger than 0.100000
B(  0-C ,  1-C ) :   1.9485 B(  0-C ,  5-C ) :   1.0273 B(  0-C ,  6-H ) :   0.9669 
B(  1-C ,  2-C ) :   1.0271 B(  1-C ,  7-H ) :   0.9669 B(  2-C ,  3-C ) :   1.0792 
B(  2-C ,  8-H ) :   0.9379 B(  2-C ,  9-H ) :   0.9270 B(  3-C ,  4-C ) :   1.0657 
B(  3-C , 10-H ) :   0.9519 B(  3-C , 11-H ) :   0.9443 B(  4-C ,  5-C ) :   1.0790 
B(  4-C , 12-H ) :   0.9443 B(  4-C , 13-H ) :   0.9519 B(  5-C , 14-H ) :   0.9379 
B(  5-C , 15-H ) :   0.9270 


------------------
HIRSHFELD ANALYSIS
------------------

Total integrated alpha density =     23.000029813
Total integrated beta density  =     23.000029813

  ATOM     CHARGE      SPIN    
   0 C   -0.045308    0.000000
   1 C   -0.045270    0.000000
   2 C   -0.041293    0.000000
   3 C   -0.039572    0.000000
   4 C   -0.039564    0.000000
   5 C   -0.041310    0.000000
   6 H    0.027654    0.000000
   7 H    0.027652    0.000000
   8 H    0.027368    0.000000
   9 H    0.026214    0.000000
  10 H    0.021908    0.000000
  11 H    0.022986    0.000000
  12 H    0.022993    0.000000
  13 H    0.021926    0.000000
  14 H    0.027332    0.000000
  15 H    0.026226    0.000000

  TOTAL  -0.000060    0.000000

-------
TIMINGS
-------

Total SCF time: 0 days 0 hours 0 min 42 sec 

Total time                  ....      42.141 sec
Sum of individual times     ....      42.007 sec  ( 99.7%)

Fock matrix formation       ....      39.976 sec  ( 94.9%)
  Split-RI-J                ....       2.555 sec  (  6.4% of F)
  Chain of spheres X        ....      30.169 sec  ( 75.5% of F)
  XC integration            ....       7.254 sec  ( 18.1% of F)
    Basis function eval.    ....       2.640 sec  ( 36.4% of XC)
    Density eval.           ....       1.944 sec  ( 26.8% of XC)
    XC-Functional eval.     ....       0.525 sec  (  7.2% of XC)
    XC-Potential eval.      ....       1.887 sec  ( 26.0% of XC)
Diagonalization             ....       0.019 sec  (  0.0%)
Density matrix formation    ....       0.002 sec  (  0.0%)
Population analysis         ....       0.307 sec  (  0.7%)
Initial guess               ....       0.262 sec  (  0.6%)
Orbital Transformation      ....       0.000 sec  (  0.0%)
Orbital Orthonormalization  ....       0.000 sec  (  0.0%)
DIIS solution               ....       0.005 sec  (  0.0%)
SOSCF solution              ....       0.010 sec  (  0.0%)
Grid generation             ....       1.425 sec  (  3.4%)

Maximum memory used throughout the entire SCF-calculation: 62.4 MB


-------------------------------------------------------------------------------
                          DFT DISPERSION CORRECTION                            
                                                                               
                              DFTD3 V3.1  Rev 1                                
                          USING Becke-Johnson damping                          
-------------------------------------------------------------------------------
The PBE0 functional is recognized
Active option DFTDOPT                   ...         4   

molecular C6(AA) [au] = 1996.629478 


            DFT-D V3
 parameters
 s6 scaling factor         :     1.0000 
 a1 scaling factor         :     0.4145 
 s8 scaling factor         :     1.2177 
 a2 scaling factor         :     4.8593 
 ad hoc parameters k1-k3   :    16.0000     1.3333    -4.0000 

 Edisp/kcal,au: -7.514926998616  -0.011975797191 
 E6   /kcal   :  -4.816071714 
 E8   /kcal   :  -2.698855284 
 % E8         :  35.913260167 

-------------------------   ----------------
Dispersion correction           -0.011975797
-------------------------   ----------------


-------------------------   --------------------
FINAL SINGLE POINT ENERGY      -234.205228163395
-------------------------   --------------------

------------------------------------------------------------------------------
                         ORCA SCF GRADIENT CALCULATION
------------------------------------------------------------------------------

 ... reading COSX grid (gridx3)
Gradient of the Kohn-Sham DFT energy:
Kohn-Sham wavefunction type      ... RKS
Hartree-Fock exchange scaling    ...    0.250
Number of operators              ...    1
Number of atoms                  ...   16
Basis set dimensions             ...  134
Integral neglect threshold       ... 2.5e-11
Integral primitive cutoff        ... 2.5e-12
SHARK Integral package           ... ON

Nuc. rep. gradient       (SHARK) ... done (  0.0 sec)
HCore & Overlap gradient (SHARK) ... done (  0.1 sec)
RI-J gradient            (SHARK) ... done (  0.6 sec)
COSX-gradient                    ... done (  6.8 sec)
Exchange-correlation gradient    ... done
Dispersion correction            ... done

------------------
CARTESIAN GRADIENT
------------------

   1   C   :    0.013700793   -0.007776116   -0.000509832
   2   C   :   -0.015629038   -0.002638822   -0.001181320
   3   C   :    0.009581690   -0.004881578    0.004261385
   4   C   :    0.000265371    0.006759684   -0.010564705
   5   C   :    0.001403578    0.002674102    0.012167878
   6   C   :   -0.010156140   -0.000027275   -0.005045021
   7   H   :    0.004560454    0.009172350    0.001749304
   8   H   :   -0.001169779    0.010091260    0.001361541
   9   H   :   -0.005924267    0.001226887    0.002907034
  10   H   :   -0.005163802    0.000629673   -0.005043558
  11   H   :    0.000816828   -0.002263389    0.007150774
  12   H   :   -0.004273302   -0.005116785    0.000039848
  13   H   :    0.002295090   -0.005831981   -0.001789051
  14   H   :   -0.001142744    0.000470185   -0.007422145
  15   H   :    0.006115537    0.000112471   -0.002660920
  16   H   :    0.004749575   -0.002648583    0.004603302

Difference to translation invariance:
           :    0.0000298463   -0.0000479170    0.0000245137

Difference to rotation invariance:
           :    0.0002139237    0.0003701051   -0.0000776379

Norm of the cartesian gradient     ...    0.0410406593
RMS gradient                       ...    0.0059237089
MAX gradient                       ...    0.0156290380

-------
TIMINGS
-------

Total SCF gradient time            ...       11.747 sec

One electron gradient       ....       0.130 sec  (  1.1%)
RI-J Coulomb gradient       ....       0.636 sec  (  5.4%)
COSX gradient               ....       6.814 sec  ( 58.0%)
XC gradient                 ....       3.825 sec  ( 32.6%)

Maximum memory used throughout the entire SCFGRAD-calculation: 49.8 MB
------------------------------------------------------------------------------
                         ORCA GEOMETRY RELAXATION STEP
------------------------------------------------------------------------------

Reading the OPT-File                    .... done
Getting information on internals        .... done
Copying old internal coords+grads       .... done
Making the new internal coordinates     .... (new redundants).... done
Validating the new internal coordinates .... (new redundants).... done
Calculating the B-matrix                .... done
Calculating the G,G- and P matrices     .... done
Transforming gradient to internals      .... done
Projecting the internal gradient        .... done
Number of atoms                         ....  16
Number of internal coordinates          ....  89
Current Energy                          ....  -234.205228163 Eh
Current gradient norm                   ....     0.041040659 Eh/bohr
Maximum allowed component of the step   ....  0.300
Current trust radius                    ....  0.300
Evaluating the initial hessian          ....  (Almloef) done
Projecting the Hessian                  .... done
Forming the augmented Hessian           .... done
Diagonalizing the augmented Hessian     .... done
Last element of RFO vector              ....  0.993061961
Lowest eigenvalues of augmented Hessian:
 -0.002561456  0.013286131  0.016146539  0.022608322  0.023181236
Length of the computed step             ....  0.118413824
The final length of the internal step   ....  0.118413824
Converting the step to cartesian space:
 Initial RMS(Int)=    0.0125518403
Transforming coordinates:
 Iter   0:  RMS(Cart)=    0.0188366464 RMS(Int)=    0.0125342976
 Iter   1:  RMS(Cart)=    0.0000916972 RMS(Int)=    0.0000900542
 Iter   2:  RMS(Cart)=    0.0000010153 RMS(Int)=    0.0000008148
 Iter   3:  RMS(Cart)=    0.0000000128 RMS(Int)=    0.0000000128
done
Storing new coordinates                 .... done

                                .--------------------.
          ----------------------|Geometry convergence|-------------------------
          Item                value                   Tolerance       Converged
          ---------------------------------------------------------------------
          RMS gradient        0.0033524735            0.0005000000      NO
          MAX gradient        0.0177606015            0.0020000000      NO
          RMS step            0.0125518403            0.0070000000      NO
          MAX step            0.0269463254            0.0100000000      NO
          ........................................................
          Max(Bonds)      0.0143      Max(Angles)    0.73
          Max(Dihed)        1.42      Max(Improp)    0.00
          ---------------------------------------------------------------------

The optimization has not yet converged - more geometry cycles are needed


    ---------------------------------------------------------------------------
                         Redundant Internal Coordinates
                            (Angstroem and degrees)

        Definition                    Value    dE/dq     Step     New-Value
    ----------------------------------------------------------------------------
     1. B(C   1,C   0)                1.3222 -0.017761  0.0120    1.3343   
     2. B(C   2,C   1)                1.4981 -0.003758  0.0050    1.5031   
     3. B(C   3,C   2)                1.5265 -0.001540  0.0017    1.5282   
     4. B(C   4,C   3)                1.5246 -0.002495  0.0030    1.5276   
     5. B(C   5,C   4)                1.5263 -0.001625  0.0018    1.5282   
     6. B(C   5,C   0)                1.4979 -0.003864  0.0052    1.5031   
     7. B(H   6,C   0)                1.0817 -0.010075  0.0143    1.0959   
     8. B(H   7,C   1)                1.0818 -0.009931  0.0141    1.0959   
     9. B(H   8,C   2)                1.0932 -0.006398  0.0094    1.1027   
    10. B(H   9,C   2)                1.0956 -0.006818  0.0102    1.1058   
    11. B(H  10,C   3)                1.0922 -0.007403  0.0109    1.1031   
    12. B(H  11,C   3)                1.0919 -0.006387  0.0094    1.1013   
    13. B(H  12,C   4)                1.0921 -0.006239  0.0092    1.1013   
    14. B(H  13,C   4)                1.0923 -0.007401  0.0109    1.1032   
    15. B(H  14,C   5)                1.0933 -0.006360  0.0094    1.1027   
    16. B(H  15,C   5)                1.0959 -0.006683  0.0100    1.1058   
    17. A(C   5,C   0,H   6)          116.00 -0.003659    0.50    116.50   
    18. A(C   1,C   0,C   5)          123.52  0.002132   -0.15    123.37   
    19. A(C   1,C   0,H   6)          120.47  0.001526   -0.35    120.13   
    20. A(C   0,C   1,C   2)          123.52  0.002084   -0.15    123.37   
    21. A(C   0,C   1,H   7)          120.49  0.001552   -0.35    120.14   
    22. A(C   2,C   1,H   7)          115.99 -0.003636    0.50    116.49   
    23. A(C   3,C   2,H   9)          109.84  0.000224   -0.02    109.82   
    24. A(C   1,C   2,H   9)          108.81  0.000140    0.08    108.89   
    25. A(C   1,C   2,C   3)          111.31 -0.001024    0.37    111.69   
    26. A(C   3,C   2,H   8)          110.24 -0.000458    0.16    110.40   
    27. A(H   8,C   2,H   9)          106.98  0.001232   -0.73    106.26   
    28. A(C   1,C   2,H   8)          109.54 -0.000017    0.10    109.64   
    29. A(C   2,C   3,C   4)          109.78 -0.002062    0.54    110.31   
    30. A(H  10,C   3,H  11)          108.00  0.000574   -0.58    107.42   
    31. A(C   2,C   3,H  11)          110.04  0.000527    0.18    110.22   
    32. A(C   4,C   3,H  10)          109.13  0.000844   -0.19    108.93   
    33. A(C   2,C   3,H  10)          109.38  0.000448   -0.24    109.14   
    34. A(C   4,C   3,H  11)          110.48 -0.000269    0.27    110.75   
    35. A(H  12,C   4,H  13)          107.99  0.000541   -0.57    107.42   
    36. A(C   5,C   4,H  13)          109.41  0.000480   -0.25    109.17   
    37. A(C   3,C   4,H  13)          109.15  0.000889   -0.21    108.94   
    38. A(C   5,C   4,H  12)          110.04  0.000524    0.18    110.22   
    39. A(C   3,C   4,H  12)          110.48 -0.000240    0.27    110.75   
    40. A(C   3,C   4,C   5)          109.73 -0.002132    0.55    110.29   
    41. A(H  14,C   5,H  15)          106.97  0.001232   -0.72    106.25   
    42. A(C   4,C   5,H  15)          109.84  0.000262   -0.03    109.81   
    43. A(C   0,C   5,H  15)          108.81  0.000092    0.08    108.89   
    44. A(C   4,C   5,H  14)          110.24 -0.000538    0.17    110.41   
    45. A(C   0,C   5,H  14)          109.56  0.000010    0.09    109.65   
    46. A(C   0,C   5,C   4)          111.31 -0.000963    0.37    111.68   
    47. D(C   2,C   1,C   0,C   5)     -0.17 -0.000019   -0.57     -0.75   
    48. D(H   7,C   1,C   0,C   5)    179.20 -0.000048   -0.26    178.95   
    49. D(C   2,C   1,C   0,H   6)    179.20 -0.000057   -0.25    178.95   
    50. D(H   7,C   1,C   0,H   6)     -1.42 -0.000086    0.06     -1.36   
    51. D(H   9,C   2,C   1,H   7)    -73.97 -0.000805    0.68    -73.29   
    52. D(H   9,C   2,C   1,C   0)    105.44 -0.000805    0.97    106.41   
    53. D(C   3,C   2,C   1,H   7)    164.86 -0.000528    0.41    165.27   
    54. D(C   3,C   2,C   1,C   0)    -15.74 -0.000527    0.71    -15.03   
    55. D(H   8,C   2,C   1,C   0)   -137.92  0.000743    0.20   -137.73   
    56. D(H   8,C   2,C   1,H   7)     42.67  0.000743   -0.10     42.57   
    57. D(H  10,C   3,C   2,C   1)    -72.73  0.000962   -0.98    -73.71   
    58. D(C   4,C   3,C   2,H   8)    168.76 -0.000015   -0.56    168.20   
    59. D(C   4,C   3,C   2,C   1)     46.98  0.001013   -1.04     45.94   
    60. D(H  10,C   3,C   2,H   8)     49.05 -0.000066   -0.50     48.55   
    61. D(C   4,C   3,C   2,H   9)    -73.59  0.001353   -1.37    -74.96   
    62. D(H  11,C   3,C   2,H   9)     48.20  0.000014   -0.57     47.64   
    63. D(H  11,C   3,C   2,H   8)    -69.44 -0.001354    0.24    -69.20   
    64. D(H  11,C   3,C   2,C   1)    168.78 -0.000326   -0.24    168.54   
    65. D(H  10,C   3,C   2,H   9)    166.70  0.001302   -1.31    165.38   
    66. D(H  13,C   4,C   3,H  11)    -65.77  0.000275    0.44    -65.32   
    67. D(H  13,C   4,C   3,C   2)     55.77 -0.000600    1.19     56.97   
    68. D(H  12,C   4,C   3,H  11)     52.84  0.001341   -0.22     52.61   
    69. D(H  12,C   4,C   3,H  10)    -65.76  0.000281    0.44    -65.32   
    70. D(H  12,C   4,C   3,C   2)    174.38  0.000465    0.53    174.90   
    71. D(C   5,C   4,C   3,H  11)    174.34  0.000437    0.54    174.88   
    72. D(H  13,C   4,C   3,H  10)    175.64 -0.000784    1.11    176.75   
    73. D(C   5,C   4,C   3,C   2)    -64.12 -0.000439    1.29    -62.83   
    74. D(C   5,C   4,C   3,H  10)     55.74 -0.000623    1.21     56.95   
    75. D(H  14,C   5,C   0,C   1)   -138.08  0.000729    0.25   -137.83   
    76. D(C   4,C   5,C   0,H   6)    164.70 -0.000575    0.47    165.17   
    77. D(C   4,C   5,C   0,C   1)    -15.90 -0.000584    0.77    -15.13   
    78. D(H  15,C   5,C   4,H  12)     48.31  0.000019   -0.61     47.70   
    79. D(H  15,C   5,C   4,C   3)    -73.46  0.001367   -1.42    -74.88   
    80. D(H  14,C   5,C   4,H  13)     49.17 -0.000057   -0.54     48.63   
    81. D(H  14,C   5,C   4,H  12)    -69.32 -0.001324    0.19    -69.13   
    82. D(H  14,C   5,C   4,C   3)    168.91  0.000024   -0.62    168.29   
    83. D(C   0,C   5,C   4,H  13)    -72.62  0.000950   -1.02    -73.64   
    84. D(C   0,C   5,C   4,H  12)    168.89 -0.000316   -0.29    168.60   
    85. D(C   0,C   5,C   4,C   3)     47.12  0.001031   -1.10     46.02   
    86. D(H  15,C   5,C   0,H   6)    -74.12 -0.000799    0.72    -73.39   
    87. D(H  15,C   5,C   0,C   1)    105.29 -0.000807    1.02    106.31   
    88. D(H  15,C   5,C   4,H  13)    166.81  0.001286   -1.34    165.46   
    89. D(H  14,C   5,C   0,H   6)     42.52  0.000737   -0.05     42.46   
    ----------------------------------------------------------------------------

         *************************************************************
         *                GEOMETRY OPTIMIZATION CYCLE   2            *
         *************************************************************
---------------------------------
CARTESIAN COORDINATES (ANGSTROEM)
---------------------------------
  C     -0.891457   -1.252440   -0.179684
  C      0.423218   -1.466042   -0.259179
  C      1.448061   -0.375320   -0.119563
  C      0.818325    1.011032   -0.248836
  C     -0.455731    1.094840    0.589799
  C     -1.495349    0.100383    0.074535
  H     -1.592684   -2.085015   -0.306671
  H      0.806890   -2.478354   -0.429511
  H      2.238550   -0.510477   -0.876358
  H      1.942220   -0.472330    0.864906
  H      0.563677    1.195571   -1.306193
  H      1.538355    1.786140    0.056991
  H     -0.866248    2.116615    0.574700
  H     -0.211152    0.852673    1.637920
  H     -2.326581    0.006276    0.792932
  H     -1.939993    0.476347   -0.865590

----------------------------
CARTESIAN COORDINATES (A.U.)
----------------------------
  NO LB      ZA    FRAG     MASS         X           Y           Z
   0 C     6.0000    0    12.011   -1.684610   -2.366768   -0.339553
   1 C     6.0000    0    12.011    0.799766   -2.770417   -0.489777
   2 C     6.0000    0    12.011    2.736439   -0.709253   -0.225940
   3 C     6.0000    0    12.011    1.546411    1.910573   -0.470233
   4 C     6.0000    0    12.011   -0.861207    2.068947    1.114560
   5 C     6.0000    0    12.011   -2.825800    0.189696    0.140851
   6 H     1.0000    0     1.008   -3.009737   -3.940107   -0.579524
   7 H     1.0000    0     1.008    1.524801   -4.683410   -0.811658
   8 H     1.0000    0     1.008    4.230247   -0.964661   -1.656076
   9 H     1.0000    0     1.008    3.670263   -0.892574    1.634436
  10 H     1.0000    0     1.008    1.065195    2.259301   -2.468348
  11 H     1.0000    0     1.008    2.907070    3.375316    0.107697
  12 H     1.0000    0     1.008   -1.636972    3.999823    1.086026
  13 H     1.0000    0     1.008   -0.399020    1.611318    3.095221
  14 H     1.0000    0     1.008   -4.396602    0.011860    1.498425
  15 H     1.0000    0     1.008   -3.666056    0.900166   -1.635728

--------------------------------
INTERNAL COORDINATES (ANGSTROEM)
--------------------------------
 C      0   0   0     0.000000000000     0.00000000     0.00000000
 C      1   0   0     1.334284856649     0.00000000     0.00000000
 C      2   1   0     1.503152905803   123.37241705     0.00000000
 C      3   2   1     1.528152913971   111.68306096   344.96714268
 C      4   3   2     1.527597515031   110.30535563    45.93978573
 C      1   2   3     1.503143666538   123.36714947   359.25579871
 H      1   2   3     1.095913506752   120.12772097   178.94861846
 H      2   1   3     1.095898308010   120.13835388   179.69056693
 H      3   2   1     1.102669228595   109.63832309   222.27341065
 H      3   2   1     1.105794747673   108.88775143   106.41178205
 H      4   3   2     1.103133798968   109.14590180   286.28805477
 H      4   3   2     1.101256630632   110.21853042   168.54072765
 H      5   4   3     1.101261580564   110.74902952   174.90316799
 H      5   4   3     1.103186640544   108.94366396    56.96847199
 H      6   1   2     1.102677797303   109.64733540   222.16683925
 H      6   1   2     1.105845033158   108.88918563   106.30880401

---------------------------
INTERNAL COORDINATES (A.U.)
---------------------------
 C      0   0   0     0.000000000000     0.00000000     0.00000000
 C      1   0   0     2.521432963705     0.00000000     0.00000000
 C      2   1   0     2.840547329376   123.37241705     0.00000000
 C      3   2   1     2.887790498160   111.68306096   344.96714268
 C      4   3   2     2.886740946267   110.30535563    45.93978573
 C      1   2   3     2.840529869695   123.36714947   359.25579871
 H      1   2   3     2.070976394227   120.12772097   178.94861846
 H      2   1   3     2.070947672766   120.13835388   179.69056693
 H      3   2   1     2.083742858346   109.63832309   222.27341065
 H      3   2   1     2.089649233431   108.88775143   106.41178205
 H      4   3   2     2.084620769121   109.14590180   286.28805477
[...]
  48   0.0000       0.594880        16.1875 
  49   0.0000       0.623413        16.9639 
  50   0.0000       0.636865        17.3300 
  51   0.0000       0.641716        17.4620 
  52   0.0000       0.653315        17.7776 
  53   0.0000       0.656039        17.8517 
  54   0.0000       0.678443        18.4614 
  55   0.0000       0.678574        18.4649 
  56   0.0000       0.694642        18.9022 
  57   0.0000       0.699337        19.0299 
  58   0.0000       0.706912        19.2361 
  59   0.0000       0.711775        19.3684 
  60   0.0000       0.713214        19.4075 
  61   0.0000       0.727727        19.8025 
  62   0.0000       0.731018        19.8920 
  63   0.0000       0.734762        19.9939 
  64   0.0000       0.740977        20.1630 
  65   0.0000       0.765713        20.8361 
  66   0.0000       0.822321        22.3765 
  67   0.0000       0.832340        22.6491 
  68   0.0000       0.880776        23.9671 
  69   0.0000       1.012216        27.5438 
  70   0.0000       1.041380        28.3374 
  71   0.0000       1.068287        29.0696 
  72   0.0000       1.160782        31.5865 
  73   0.0000       1.177990        32.0547 
  74   0.0000       1.221483        33.2382 
  75   0.0000       1.268325        34.5129 
  76   0.0000       1.305190        35.5160 
  77   0.0000       1.315914        35.8079 
  78   0.0000       1.344619        36.5889 
  79   0.0000       1.492886        40.6235 
  80   0.0000       1.564700        42.5776 
  81   0.0000       1.565744        42.6061 
  82   0.0000       1.596101        43.4321 
  83   0.0000       1.663675        45.2709 
  84   0.0000       1.666049        45.3355 
  85   0.0000       1.719269        46.7837 
  86   0.0000       1.756552        47.7982 
  87   0.0000       1.766871        48.0790 
  88   0.0000       1.780628        48.4533 
  89   0.0000       1.802828        49.0575 
  90   0.0000       1.805491        49.1299 
  91   0.0000       1.828409        49.7535 
  92   0.0000       1.838219        50.0205 
  93   0.0000       1.848518        50.3007 
  94   0.0000       1.854302        50.4581 
  95   0.0000       1.879816        51.1524 
  96   0.0000       1.889861        51.4257 
  97   0.0000       1.895315        51.5741 
  98   0.0000       1.902759        51.7767 
  99   0.0000       1.930412        52.5292 
 100   0.0000       1.942670        52.8627 
 101   0.0000       1.970996        53.6335 
 102   0.0000       1.976186        53.7748 
 103   0.0000       2.027638        55.1748 
 104   0.0000       2.066869        56.2424 
 105   0.0000       2.069274        56.3078 
 106   0.0000       2.148553        58.4651 
 107   0.0000       2.172384        59.1136 
 108   0.0000       2.219759        60.4027 
 109   0.0000       2.232551        60.7508 
 110   0.0000       2.263113        61.5824 
 111   0.0000       2.298937        62.5573 
 112   0.0000       2.398018        65.2534 
 113   0.0000       2.400191        65.3125 
 114   0.0000       2.424999        65.9876 
 115   0.0000       2.478002        67.4299 
 116   0.0000       2.483229        67.5721 
 117   0.0000       2.583504        70.3007 
 118   0.0000       2.603465        70.8439 
 119   0.0000       2.611927        71.0741 
 120   0.0000       2.643084        71.9220 
 121   0.0000       2.664270        72.4985 
 122   0.0000       2.733395        74.3794 
 123   0.0000       2.776958        75.5649 
 124   0.0000       2.845383        77.4268 
 125   0.0000       2.922198        79.5170 
 126   0.0000       2.943563        80.0984 
 127   0.0000       2.956203        80.4424 
 128   0.0000       3.018616        82.1407 
 129   0.0000       3.032089        82.5073 
 130   0.0000       3.045431        82.8704 
 131   0.0000       3.065997        83.4300 
 132   0.0000       3.106716        84.5380 
 133   0.0000       3.328975        90.5860 

                    ********************************
                    * MULLIKEN POPULATION ANALYSIS *
                    ********************************

-----------------------
MULLIKEN ATOMIC CHARGES
-----------------------
   0 C :   -0.108351
   1 C :   -0.108133
   2 C :    0.001440
   3 C :   -0.072559
   4 C :   -0.072327
   5 C :    0.001639
   6 H :    0.023074
   7 H :    0.022846
   8 H :    0.040116
   9 H :    0.045090
  10 H :    0.038238
  11 H :    0.032783
  12 H :    0.032655
  13 H :    0.038280
  14 H :    0.040120
  15 H :    0.045091
Sum of atomic charges:    0.0000000

--------------------------------
MULLIKEN REDUCED ORBITAL CHARGES
--------------------------------
  0 C s       :     3.155694  s :     3.155694
      pz      :     1.009501  p :     2.917325
      px      :     0.970696
      py      :     0.937128
      dz2     :     0.002450  d :     0.035332
      dxz     :     0.007433
      dyz     :     0.003030
      dx2y2   :     0.009318
      dxy     :     0.013101
  1 C s       :     3.155820  s :     3.155820
      pz      :     1.003668  p :     2.916980
      px      :     0.989403
      py      :     0.923909
      dz2     :     0.002444  d :     0.035334
      dxz     :     0.008468
      dyz     :     0.001760
      dx2y2   :     0.011156
      dxy     :     0.011506
  2 C s       :     2.989994  s :     2.989994
      pz      :     1.015679  p :     2.972068
      px      :     1.002265
      py      :     0.954125
      dz2     :     0.005866  d :     0.036498
      dxz     :     0.009594
      dyz     :     0.004612
      dx2y2   :     0.007467
      dxy     :     0.008958
  3 C s       :     3.063187  s :     3.063187
      pz      :     1.008820  p :     2.973091
      px      :     0.971948
      py      :     0.992323
      dz2     :     0.009372  d :     0.036281
      dxz     :     0.006404
      dyz     :     0.004200
      dx2y2   :     0.006282
      dxy     :     0.010024
  4 C s       :     3.063174  s :     3.063174
      pz      :     1.009590  p :     2.972878
      px      :     0.960665
      py      :     1.002623
      dz2     :     0.009860  d :     0.036275
      dxz     :     0.007408
      dyz     :     0.002952
      dx2y2   :     0.007548
      dxy     :     0.008506
  5 C s       :     2.989723  s :     2.989723
      pz      :     1.010255  p :     2.972146
      px      :     1.003484
      py      :     0.958407
      dz2     :     0.005364  d :     0.036493
      dxz     :     0.009458
      dyz     :     0.006011
      dx2y2   :     0.007821
      dxy     :     0.007838
  6 H s       :     0.953869  s :     0.953869
      pz      :     0.004910  p :     0.023057
      px      :     0.008048
      py      :     0.010099
  7 H s       :     0.954093  s :     0.954093
      pz      :     0.005057  p :     0.023061
      px      :     0.004728
      py      :     0.013277
  8 H s       :     0.937068  s :     0.937068
      pz      :     0.009674  p :     0.022817
      px      :     0.009178
      py      :     0.003965
  9 H s       :     0.931982  s :     0.931982
      pz      :     0.012352  p :     0.022928
      px      :     0.006593
      py      :     0.003983
 10 H s       :     0.939380  s :     0.939380
      pz      :     0.013357  p :     0.022382
      px      :     0.004609
      py      :     0.004416
 11 H s       :     0.944764  s :     0.944764
      pz      :     0.005422  p :     0.022453
      px      :     0.008188
      py      :     0.008844
 12 H s       :     0.944888  s :     0.944888
      pz      :     0.004541  p :     0.022457
      px      :     0.005235
      py      :     0.012680
 13 H s       :     0.939343  s :     0.939343
      pz      :     0.013132  p :     0.022377
      px      :     0.004392
      py      :     0.004854
 14 H s       :     0.937066  s :     0.937066
      pz      :     0.009145  p :     0.022814
      px      :     0.009567
      py      :     0.004102
 15 H s       :     0.931981  s :     0.931981
      pz      :     0.011612  p :     0.022928
      px      :     0.006142
      py      :     0.005174


                     *******************************
                     * LOEWDIN POPULATION ANALYSIS *
                     *******************************

----------------------
LOEWDIN ATOMIC CHARGES
----------------------
   0 C :   -0.052988
   1 C :   -0.052938
   2 C :   -0.051661
   3 C :   -0.046216
   4 C :   -0.046188
   5 C :   -0.051650
   6 H :    0.027450
   7 H :    0.027409
   8 H :    0.034071
   9 H :    0.035015
  10 H :    0.027343
  11 H :    0.026972
  12 H :    0.026957
  13 H :    0.027347
  14 H :    0.034066
  15 H :    0.035011

-------------------------------
LOEWDIN REDUCED ORBITAL CHARGES
-------------------------------
  0 C s       :     2.872949  s :     2.872949
      pz      :     0.984349  p :     3.090912
      px      :     1.081088
      py      :     1.025474
      dz2     :     0.005655  d :     0.089127
      dxz     :     0.014598
      dyz     :     0.005820
      dx2y2   :     0.026962
      dxy     :     0.036092
  1 C s       :     2.872927  s :     2.872927
      pz      :     0.984580  p :     3.090868
      px      :     1.078546
      py      :     1.027742
      dz2     :     0.005650  d :     0.089143
      dxz     :     0.016422
      dyz     :     0.003243
      dx2y2   :     0.030669
      dxy     :     0.033159
  2 C s       :     2.835744  s :     2.835744
      pz      :     1.061731  p :     3.124943
      px      :     1.035018
      py      :     1.028194
      dz2     :     0.015495  d :     0.090975
      dxz     :     0.024595
      dyz     :     0.008826
      dx2y2   :     0.017650
      dxy     :     0.024410
  3 C s       :     2.839723  s :     2.839723
      pz      :     1.056008  p :     3.117290
      px      :     1.033190
      py      :     1.028091
      dz2     :     0.023312  d :     0.089203
      dxz     :     0.016381
      dyz     :     0.008762
      dx2y2   :     0.016209
      dxy     :     0.024539
  4 C s       :     2.839743  s :     2.839743
      pz      :     1.050661  p :     3.117255
      px      :     1.025684
      py      :     1.040910
      dz2     :     0.024012  d :     0.089191
      dxz     :     0.018689
      dyz     :     0.006511
      dx2y2   :     0.018501
      dxy     :     0.021476
  5 C s       :     2.835756  s :     2.835756
      pz      :     1.058648  p :     3.124940
      px      :     1.034024
      py      :     1.032267
      dz2     :     0.012913  d :     0.090955
      dxz     :     0.024244
      dyz     :     0.014171
      dx2y2   :     0.018313
      dxy     :     0.021314
  6 H s       :     0.904149  s :     0.904149
      pz      :     0.015315  p :     0.068402
      px      :     0.022422
      py      :     0.030664
  7 H s       :     0.904191  s :     0.904191
      pz      :     0.015604  p :     0.068400
      px      :     0.014273
      py      :     0.038524
  8 H s       :     0.899746  s :     0.899746
      pz      :     0.026098  p :     0.066183
      px      :     0.026701
      py      :     0.013383
  9 H s       :     0.898894  s :     0.898894
      pz      :     0.034028  p :     0.066091
      px      :     0.018927
      py      :     0.013136
 10 H s       :     0.906739  s :     0.906739
      pz      :     0.038186  p :     0.065918
      px      :     0.014112
      py      :     0.013620
 11 H s       :     0.906919  s :     0.906919
      pz      :     0.015081  p :     0.066109
      px      :     0.024740
      py      :     0.026288
 12 H s       :     0.906932  s :     0.906932
      pz      :     0.012873  p :     0.066111
      px      :     0.016977
      py      :     0.036261
 13 H s       :     0.906744  s :     0.906744
      pz      :     0.037992  p :     0.065909
      px      :     0.014220
      py      :     0.013697
 14 H s       :     0.899752  s :     0.899752
      pz      :     0.024827  p :     0.066183
      px      :     0.028203
      py      :     0.013153
 15 H s       :     0.898895  s :     0.898895
      pz      :     0.032290  p :     0.066094
      px      :     0.017819
      py      :     0.015985


                      *****************************
                      * MAYER POPULATION ANALYSIS *
                      *****************************

  NA   - Mulliken gross atomic population
  ZA   - Total nuclear charge
  QA   - Mulliken gross atomic charge
  VA   - Mayer's total valence
  BVA  - Mayer's bonded valence
  FA   - Mayer's free valence

  ATOM       NA         ZA         QA         VA         BVA        FA
  0 C      6.1084     6.0000    -0.1084     4.0049     4.0049     0.0000
  1 C      6.1081     6.0000    -0.1081     4.0047     4.0047    -0.0000
  2 C      5.9986     6.0000     0.0014     3.9619     3.9619     0.0000
  3 C      6.0726     6.0000    -0.0726     4.0559     4.0559     0.0000
  4 C      6.0723     6.0000    -0.0723     4.0554     4.0554     0.0000
  5 C      5.9984     6.0000     0.0016     3.9619     3.9619     0.0000
  6 H      0.9769     1.0000     0.0231     0.9827     0.9827     0.0000
  7 H      0.9772     1.0000     0.0228     0.9827     0.9827     0.0000
  8 H      0.9599     1.0000     0.0401     0.9750     0.9750     0.0000
  9 H      0.9549     1.0000     0.0451     0.9756     0.9756    -0.0000
 10 H      0.9618     1.0000     0.0382     0.9725     0.9725     0.0000
 11 H      0.9672     1.0000     0.0328     0.9731     0.9731    -0.0000
 12 H      0.9673     1.0000     0.0327     0.9732     0.9732    -0.0000
 13 H      0.9617     1.0000     0.0383     0.9725     0.9725    -0.0000
 14 H      0.9599     1.0000     0.0401     0.9750     0.9750     0.0000
 15 H      0.9549     1.0000     0.0451     0.9756     0.9756     0.0000

  Mayer bond orders larger than 0.100000
B(  0-C ,  1-C ) :   1.9478 B(  0-C ,  5-C ) :   1.0271 B(  0-C ,  6-H ) :   0.9639 
B(  1-C ,  2-C ) :   1.0269 B(  1-C ,  7-H ) :   0.9640 B(  2-C ,  3-C ) :   1.0759 
B(  2-C ,  8-H ) :   0.9383 B(  2-C ,  9-H ) :   0.9264 B(  3-C ,  4-C ) :   1.0674 
B(  3-C , 10-H ) :   0.9507 B(  3-C , 11-H ) :   0.9449 B(  4-C ,  5-C ) :   1.0756 
B(  4-C , 12-H ) :   0.9449 B(  4-C , 13-H ) :   0.9507 B(  5-C , 14-H ) :   0.9382 
B(  5-C , 15-H ) :   0.9264 


------------------
HIRSHFELD ANALYSIS
------------------

Total integrated alpha density =     23.000019547
Total integrated beta density  =     23.000019547

  ATOM     CHARGE      SPIN    
   0 C   -0.045952    0.000000
   1 C   -0.045936    0.000000
   2 C   -0.040809    0.000000
   3 C   -0.038714    0.000000
   4 C   -0.038715    0.000000
   5 C   -0.040814    0.000000
   6 H    0.028159    0.000000
   7 H    0.028150    0.000000
   8 H    0.027503    0.000000
   9 H    0.025283    0.000000
  10 H    0.020806    0.000000
  11 H    0.023701    0.000000
  12 H    0.023709    0.000000
  13 H    0.020821    0.000000
  14 H    0.027485    0.000000
  15 H    0.025281    0.000000

  TOTAL  -0.000039    0.000000

-------
TIMINGS
-------

Total SCF time: 0 days 0 hours 0 min 22 sec 

Total time                  ....      22.122 sec
Sum of individual times     ....      21.970 sec  ( 99.3%)

Fock matrix formation       ....      20.468 sec  ( 92.5%)
  Split-RI-J                ....       1.053 sec  (  5.1% of F)
  Chain of spheres X        ....      16.908 sec  ( 82.6% of F)
  XC integration            ....       2.545 sec  ( 12.4% of F)
    Basis function eval.    ....       0.950 sec  ( 37.3% of XC)
    Density eval.           ....       0.662 sec  ( 26.0% of XC)
    XC-Functional eval.     ....       0.187 sec  (  7.3% of XC)
    XC-Potential eval.      ....       0.620 sec  ( 24.4% of XC)
Diagonalization             ....       0.003 sec  (  0.0%)
Density matrix formation    ....       0.001 sec  (  0.0%)
Population analysis         ....       0.309 sec  (  1.4%)
Initial guess               ....       0.003 sec  (  0.0%)
Orbital Transformation      ....       0.000 sec  (  0.0%)
Orbital Orthonormalization  ....       0.002 sec  (  0.0%)
DIIS solution               ....       0.000 sec  (  0.0%)
SOSCF solution              ....       0.006 sec  (  0.0%)
Grid generation             ....       1.180 sec  (  5.3%)

Maximum memory used throughout the entire SCF-calculation: 62.4 MB


-------------------------------------------------------------------------------
                          DFT DISPERSION CORRECTION                            
                                                                               
                              DFTD3 V3.1  Rev 1                                
                          USING Becke-Johnson damping                          
-------------------------------------------------------------------------------
The PBE0 functional is recognized
Active option DFTDOPT                   ...         4   

molecular C6(AA) [au] = 1997.599781 


            DFT-D V3
 parameters
 s6 scaling factor         :     1.0000 
 a1 scaling factor         :     0.4145 
 s8 scaling factor         :     1.2177 
 a2 scaling factor         :     4.8593 
 ad hoc parameters k1-k3   :    16.0000     1.3333    -4.0000 

 Edisp/kcal,au: -7.455266210538  -0.011880721684 
 E6   /kcal   :  -4.776795923 
 E8   /kcal   :  -2.678470287 
 % E8         :  35.927225288 

-------------------------   ----------------
Dispersion correction           -0.011880722
-------------------------   ----------------


-------------------------   --------------------
FINAL SINGLE POINT ENERGY      -234.206947777768
-------------------------   --------------------

                                *** OPTIMIZATION RUN DONE ***

                            ***************************************
                            *     ORCA property calculations      *
                            ***************************************

                                    ---------------------
                                    Active property flags
                                    ---------------------
   (+) Dipole Moment


------------------------------------------------------------------------------
                       ORCA ELECTRIC PROPERTIES CALCULATION
------------------------------------------------------------------------------

Dipole Moment Calculation                       ... on
Quadrupole Moment Calculation                   ... off
Polarizability Calculation                      ... off
GBWName                                         ... p0_C6H10_conf1_opt_orca.gbw
Electron density                                ... p0_C6H10_conf1_opt_orca.scfp
The origin for moment calculation is the CENTER OF MASS  = (-0.038952, -0.225961 -0.036421)

-------------
DIPOLE MOMENT
-------------
                                X             Y             Z
Electronic contribution:     -0.31898      -1.85076      -0.29859
Nuclear contribution   :      0.33786       1.95923       0.31601
                        -----------------------------------------
Total Dipole Moment    :      0.01888       0.10847       0.01742
                        -----------------------------------------
Magnitude (a.u.)       :      0.11147
Magnitude (Debye)      :      0.28334



--------------------
Rotational spectrum 
--------------------
 
Rotational constants in cm-1:     0.158677     0.152128     0.085600 
Rotational constants in MHz :  4757.026004  4560.668363  2566.227192 

 Dipole components along the rotational axes: 
x,y,z [a.u.] :     0.000059     0.111471    -0.000090 
x,y,z [Debye]:     0.000150     0.283337    -0.000230 

 

Timings for individual modules:

Sum of individual times         ...      198.927 sec (=   3.315 min)
GTO integral calculation        ...        0.774 sec (=   0.013 min)   0.4 %
SCF iterations                  ...      150.685 sec (=   2.511 min)  75.7 %
SCF Gradient evaluation         ...       47.335 sec (=   0.789 min)  23.8 %
Geometry relaxation             ...        0.133 sec (=   0.002 min)   0.1 %
                             ****ORCA TERMINATED NORMALLY****
TOTAL RUN TIME: 0 days 0 hours 3 minutes 19 seconds 371 msec
