      -----------------------------------------------------------      
     |                   =====================                   |     
     |                           x T B                           |     
     |                   =====================                   |     
     |                         S. Grimme                         |     
     |          Mulliken Center for Theoretical Chemistry        |     
     |                    University of Bonn                     |     
      -----------------------------------------------------------      

   * xtb version 6.6.1 (8d0f1dd) compiled by 'conda@1efc2f54142f' on 2023-08-01

   xtb is free software: you can redistribute it and/or modify it under
   the terms of the GNU Lesser General Public License as published by
   the Free Software Foundation, either version 3 of the License, or
   (at your option) any later version.
   
   xtb is distributed in the hope that it will be useful,
   but WITHOUT ANY WARRANTY; without even the implied warranty of
   MERCHANTABILITY or FITNESS FOR A PARTICULAR PURPOSE.  See the
   GNU Lesser General Public License for more details.
   
   Cite this work as:
   * C. Bannwarth, E. Caldeweyher, S. Ehlert, A. Hansen, P. Pracht,
     J. Seibert, S. Spicher, S. Grimme, WIREs Comput. Mol. Sci., 2020, 11,
     e01493. DOI: 10.1002/wcms.1493
   
   for GFN2-xTB:
   * C. Bannwarth, S. Ehlert and S. Grimme., J. Chem. Theory Comput., 2019,
     15, 1652-1671. DOI: 10.1021/acs.jctc.8b01176
   for GFN1-xTB:
   * S. Grimme, C. Bannwarth, P. Shushkov, J. Chem. Theory Comput., 2017,
     13, 1989-2009. DOI: 10.1021/acs.jctc.7b00118
   for GFN0-xTB:
   * P. Pracht, E. Caldeweyher, S. Ehlert, S. Grimme, ChemRxiv, 2019, preprint.
     DOI: 10.26434/chemrxiv.8326202.v1
   for GFN-FF:
   * S. Spicher and S. Grimme, Angew. Chem. Int. Ed., 2020, 59, 15665-15673.
     DOI: 10.1002/anie.202004239
   
   for ALPB and GBSA implicit solvation:
   * S. Ehlert, M. Stahn, S. Spicher, S. Grimme, J. Chem. Theory Comput.,
     2021, 17, 4250-4261. DOI: 10.1021/acs.jctc.1c00471
   
   for DFT-D4:
   * E. Caldeweyher, C. Bannwarth and S. Grimme, J. Chem. Phys., 2017,
     147, 034112. DOI: 10.1063/1.4993215
   * E. Caldeweyher, S. Ehlert, A. Hansen, H. Neugebauer, S. Spicher,
     C. Bannwarth and S. Grimme, J. Chem. Phys., 2019, 150, 154122.
     DOI: 10.1063/1.5090222
   * E. Caldeweyher, J.-M. Mewes, S. Ehlert and S. Grimme, Phys. Chem. Chem. Phys.
     2020, 22, 8499-8512. DOI: 10.1039/D0CP00502A
   
   for sTDA-xTB:
   * S. Grimme and C. Bannwarth, J. Chem. Phys., 2016, 145, 054103.
     DOI: 10.1063/1.4959605
   
   in the mass-spec context:
   * V. Asgeirsson, C. Bauer and S. Grimme, Chem. Sci., 2017, 8, 4879.
     DOI: 10.1039/c7sc00601b
   * J. Koopman and S. Grimme, ACS Omega 2019, 4, 12, 15120-15133.
     DOI: 10.1021/acsomega.9b02011
   
   for metadynamics refer to:
   * S. Grimme, J. Chem. Theory Comput., 2019, 155, 2847-2862
     DOI: 10.1021/acs.jctc.9b00143
   
   for SPH calculations refer to:
   * S. Spicher and S. Grimme, J. Chem. Theory Comput., 2021, 17, 1701-1714
     DOI: 10.1021/acs.jctc.0c01306
   
   with help from (in alphabetical order)
   P. Atkinson, C. Bannwarth, F. Bohle, G. Brandenburg, E. Caldeweyher
   M. Checinski, S. Dohm, S. Ehlert, S. Ehrlich, I. Gerasimov, C. Hölzer
   A. Katbashev, J. Koopman, C. Lavigne, S. Lehtola, F. März, M. Müller,
   F. Musil, H. Neugebauer, J. Pisarek, C. Plett, P. Pracht, F. Pultar,
   J. Seibert, P. Shushkov, S. Spicher, M. Stahn, M. Steiner, T. Strunk,
   J. Stückrath, T. Rose, and J. Unsleber
   
 * started run on 2025/05/23 at 11:12:38.053     

           -------------------------------------------------
          |                Calculation Setup                |
           -------------------------------------------------

          program call               : /home/avcopan/code/other/saddle-search-practice/.pixi/envs/default/bin/xtb p0_C6H10_conf1_opt_xtb.xyz --chrg 0 --uhf 0 --opt
          coordinate file            : p0_C6H10_conf1_opt_xtb.xyz
          omp threads                :                     1

   ID    Z sym.   atoms
    1    6 C      1-6
    2    1 H      7-16

           -------------------------------------------------
          |                 G F N 2 - x T B                 |
           -------------------------------------------------

        Reference                      10.1021/acs.jctc.8b01176
      * Hamiltonian:
        H0-scaling (s, p, d)           1.850000    2.230000    2.230000
        zeta-weighting                 0.500000
      * Dispersion:
        s8                             2.700000
        a1                             0.520000
        a2                             5.000000
        s9                             5.000000
      * Repulsion:
        kExp                           1.500000    1.000000
        rExp                           1.000000
      * Coulomb:
        alpha                          2.000000
        third order                    shell-resolved
        anisotropic                    true
        a3                             3.000000
        a5                             4.000000
        cn-shift                       1.200000
        cn-exp                         4.000000
        max-rad                        5.000000


          ...................................................
          :                      SETUP                      :
          :.................................................:
          :  # basis functions                  34          :
          :  # atomic orbitals                  34          :
          :  # shells                           22          :
          :  # electrons                        34          :
          :  max. iterations                   250          :
          :  Hamiltonian                  GFN2-xTB          :
          :  restarted?                      false          :
          :  GBSA solvation                  false          :
          :  PC potential                    false          :
          :  electronic temp.          300.0000000     K    :
          :  accuracy                    1.0000000          :
          :  -> integral cutoff          0.2500000E+02      :
          :  -> integral neglect         0.1000000E-07      :
          :  -> SCF convergence          0.1000000E-05 Eh   :
          :  -> wf. convergence          0.1000000E-03 e    :
          :  Broyden damping             0.4000000          :
          ...................................................

 iter      E             dE          RMSdq      gap      omega  full diag
   1    -18.1583571 -0.181584E+02  0.342E+00    5.18       0.0  T
   2    -18.1981776 -0.398205E-01  0.198E+00    5.12       1.0  T
   3    -18.1987181 -0.540542E-03  0.798E-01    5.06       1.0  T
   4    -18.1988017 -0.835324E-04  0.990E-02    5.07       1.0  T
   5    -18.1988202 -0.185321E-04  0.680E-02    5.07       1.0  T
   6    -18.1988495 -0.292868E-04  0.325E-02    5.07       1.0  T
   7    -18.1988523 -0.286907E-05  0.241E-03    5.07      10.4  T
   8    -18.1988524 -0.213724E-07  0.116E-03    5.07      21.6  T
   9    -18.1988524 -0.123969E-08  0.191E-04    5.07     130.9  T
  10    -18.1988524 -0.578950E-10  0.914E-05    5.07     273.4  T

   *** convergence criteria satisfied after 10 iterations ***

         #    Occupation            Energy/Eh            Energy/eV
      -------------------------------------------------------------
         1        2.0000           -0.6345423             -17.2668
       ...           ...                  ...                  ...
        11        2.0000           -0.4670338             -12.7086
        12        2.0000           -0.4635635             -12.6142
        13        2.0000           -0.4549413             -12.3796
        14        2.0000           -0.4332613             -11.7896
        15        2.0000           -0.4147825             -11.2868
        16        2.0000           -0.4060827             -11.0501
        17        2.0000           -0.3808860             -10.3644 (HOMO)
        18                         -0.1946530              -5.2968 (LUMO)
        19                          0.0804074               2.1880
        20                          0.0847554               2.3063
        21                          0.0955649               2.6005
        22                          0.1183991               3.2218
       ...                                ...                  ...
        34                          0.6151050              16.7379
      -------------------------------------------------------------
                  HL-Gap            0.1862330 Eh            5.0677 eV
             Fermi-level           -0.2877695 Eh           -7.8306 eV

 SCC (total)                   0 d,  0 h,  0 min,  0.011 sec
 SCC setup                      ...        0 min,  0.000 sec (  1.565%)
 Dispersion                     ...        0 min,  0.000 sec (  0.828%)
 classical contributions        ...        0 min,  0.000 sec (  0.278%)
 integral evaluation            ...        0 min,  0.001 sec ( 10.700%)
 iterations                     ...        0 min,  0.005 sec ( 45.400%)
 molecular gradient             ...        0 min,  0.004 sec ( 38.046%)
 printout                       ...        0 min,  0.000 sec (  2.989%)

         :::::::::::::::::::::::::::::::::::::::::::::::::::::
         ::                     SUMMARY                     ::
         :::::::::::::::::::::::::::::::::::::::::::::::::::::
         :: total energy             -17.919353389236 Eh    ::
         :: gradient norm              0.054019467309 Eh/a0 ::
         :: HOMO-LUMO gap              5.067657729627 eV    ::
         ::.................................................::
         :: SCC energy               -18.198852370815 Eh    ::
         :: -> isotropic ES            0.002214379679 Eh    ::
         :: -> anisotropic ES          0.004423463219 Eh    ::
         :: -> anisotropic XC          0.012693886756 Eh    ::
         :: -> dispersion             -0.010221115075 Eh    ::
         :: repulsion energy           0.279480752551 Eh    ::
         :: add. restraining           0.000000000000 Eh    ::
         :: total charge               0.000000000000 e     ::
         :::::::::::::::::::::::::::::::::::::::::::::::::::::

      ----------------------------------------------------------- 
     |                   =====================                   |
     |                        A N C O P T                        |
     |                   =====================                   |
     |               Approximate Normal Coordinate               |
     |                Rational Function Optimizer                |
      ----------------------------------------------------------- 

          ...................................................
          :                      SETUP                      :
          :.................................................:
          :   optimization level            normal          :
          :   max. optcycles                   200          :
          :   ANC micro-cycles                  20          :
          :   degrees of freedom                42          :
          :.................................................:
          :   RF solver                   davidson          :
          :   write xtbopt.log                true          :
          :   linear?                        false          :
          :   energy convergence         0.5000000E-05 Eh   :
          :   grad. convergence          0.1000000E-02 Eh/α :
          :   maxmium RF displ.          1.0000000          :
          :   Hlow (freq-cutoff)         0.1000000E-01      :
          :   Hmax (freq-cutoff)         5.0000000          :
          :   S6 in model hess.         20.0000000          :
          ...................................................

generating ANC from model Hessian ...
Using Lindh-Hessian (1995)
 Shifting diagonal of input Hessian by    1.2003232671268984E-003
 Lowest  eigenvalues of input Hessian
    0.000000    0.000000    0.000000    0.000000    0.000000    0.000000
    0.010000    0.011396    0.016209    0.020517    0.031739    0.035211
    0.047981    0.049521    0.051140    0.052973    0.056337    0.060891
 Highest eigenvalues
    1.167258    1.187190    1.215438    1.284971    1.511374    1.879347


........................................................................
.............................. CYCLE    1 ..............................
........................................................................

 iter      E             dE          RMSdq      gap      omega  full diag
   1    -18.1988524 -0.181989E+02  0.144E-05    5.07       0.0  T
   2    -18.1988524 -0.902389E-12  0.681E-06    5.07    3673.2  T
   3    -18.1988524 -0.426326E-13  0.365E-06    5.07    6854.0  T
     SCC iter.                  ...        0 min,  0.001 sec
     gradient                   ...        0 min,  0.004 sec
 * total energy  :   -17.9193534 Eh     change       -0.6831868E-11 Eh
   gradient norm :     0.0540002 Eh/α   predicted     0.0000000E+00 (-100.00%)
   displ. norm   :     0.5356998 α      lambda       -0.1388224E-01
   maximum displ.:     0.3061644 α      in ANC's #2, #1, #4, ...

........................................................................
.............................. CYCLE    2 ..............................
........................................................................

 iter      E             dE          RMSdq      gap      omega  full diag
   1    -18.2151943 -0.182152E+02  0.387E-01    5.15       0.0  T
   2    -18.2152174 -0.231083E-04  0.226E-01    5.15       1.0  T
   3    -18.2152203 -0.284497E-05  0.137E-02    5.15       1.8  T
   4    -18.2152209 -0.676001E-06  0.551E-03    5.15       4.5  T
   5    -18.2152209 -0.105233E-07  0.365E-03    5.15       6.8  T
   6    -18.2152210 -0.892608E-07  0.120E-03    5.15      20.8  T
   7    -18.2152210 -0.820579E-08  0.294E-04    5.15      85.0  T
   8    -18.2152210 -0.609788E-10  0.802E-05    5.15     311.7  T
     SCC iter.                  ...        0 min,  0.003 sec
     gradient                   ...        0 min,  0.003 sec
 * total energy  :   -17.9277477 Eh     change       -0.8394340E-02 Eh
   gradient norm :     0.0252535 Eh/α   predicted    -0.8933052E-02 (   6.42%)
   displ. norm   :     0.3591383 α      lambda       -0.3348553E-02
   maximum displ.:     0.2260593 α      in ANC's #2, #1, #4, ...

........................................................................
.............................. CYCLE    3 ..............................
........................................................................

 iter      E             dE          RMSdq      gap      omega  full diag
   1    -18.2202847 -0.182203E+02  0.210E-01    5.21       0.0  T
   2    -18.2202943 -0.968436E-05  0.123E-01    5.21       1.0  T
   3    -18.2202924  0.193651E-05  0.172E-02    5.21       1.5  T
   4    -18.2202947 -0.228016E-05  0.789E-03    5.21       3.2  T
   5    -18.2202954 -0.744295E-06  0.196E-03    5.21      12.8  T
   6    -18.2202954 -0.692681E-08  0.458E-04    5.21      54.6  T
   7    -18.2202954 -0.224436E-09  0.139E-04    5.21     180.2  T
     SCC iter.                  ...        0 min,  0.003 sec
     gradient                   ...        0 min,  0.005 sec
 * total energy  :   -17.9299408 Eh     change       -0.2193060E-02 Eh
   gradient norm :     0.0107780 Eh/α   predicted    -0.1890216E-02 ( -13.81%)
   displ. norm   :     0.3313371 α      lambda       -0.1396130E-02
   maximum displ.:     0.2105512 α      in ANC's #1, #2, #4, ...

........................................................................
.............................. CYCLE    4 ..............................
........................................................................

 iter      E             dE          RMSdq      gap      omega  full diag
   1    -18.2210293 -0.182210E+02  0.113E-01    5.23       0.0  T
   2    -18.2210317 -0.235286E-05  0.664E-02    5.23       1.0  T
   3    -18.2210304  0.127438E-05  0.121E-02    5.23       2.1  T
   4    -18.2210318 -0.142843E-05  0.467E-03    5.23       5.4  T
   5    -18.2210320 -0.237857E-06  0.125E-03    5.23      20.0  T
   6    -18.2210320 -0.120903E-08  0.224E-04    5.23     111.7  T
   7    -18.2210320 -0.116881E-09  0.946E-05    5.23     264.2  T
     SCC iter.                  ...        0 min,  0.003 sec
     gradient                   ...        0 min,  0.003 sec
 * total energy  :   -17.9308585 Eh     change       -0.9176973E-03 Eh
   gradient norm :     0.0100299 Eh/α   predicted    -0.7747045E-03 ( -15.58%)
   displ. norm   :     0.2051268 α      lambda       -0.4957692E-03
   maximum displ.:     0.1519984 α      in ANC's #1, #2, #4, ...

........................................................................
.............................. CYCLE    5 ..............................
........................................................................

 iter      E             dE          RMSdq      gap      omega  full diag
   1    -18.2229142 -0.182229E+02  0.742E-02    5.23       0.0  T
   2    -18.2229147 -0.481260E-06  0.440E-02    5.23       1.0  T
   3    -18.2229134  0.133813E-05  0.110E-02    5.23       2.3  T
   4    -18.2229149 -0.155019E-05  0.201E-03    5.23      12.4  T
   5    -18.2229149 -0.204408E-07  0.773E-04    5.23      32.3  T
   6    -18.2229149 -0.484395E-09  0.165E-04    5.23     151.1  T
     SCC iter.                  ...        0 min,  0.002 sec
     gradient                   ...        0 min,  0.004 sec
 * total energy  :   -17.9311955 Eh     change       -0.3369888E-03 Eh
   gradient norm :     0.0066796 Eh/α   predicted    -0.2583131E-03 ( -23.35%)
   displ. norm   :     0.1400348 α      lambda       -0.1901574E-03
   maximum displ.:     0.1198496 α      in ANC's #1, #2, #4, ...

........................................................................
.............................. CYCLE    6 ..............................
........................................................................

 iter      E             dE          RMSdq      gap      omega  full diag
   1    -18.2244601 -0.182245E+02  0.489E-02    5.23       0.0  T
   2    -18.2244606 -0.541419E-06  0.289E-02    5.23       1.0  T
   3    -18.2244604  0.220690E-06  0.534E-03    5.23       4.7  T
   4    -18.2244606 -0.250110E-06  0.233E-03    5.23      10.7  T
   5    -18.2244607 -0.548872E-07  0.617E-04    5.23      40.5  T
   6    -18.2244607 -0.293504E-09  0.163E-04    5.23     153.4  T
     SCC iter.                  ...        0 min,  0.004 sec
     gradient                   ...        0 min,  0.003 sec
 * total energy  :   -17.9313192 Eh     change       -0.1237503E-03 Eh
   gradient norm :     0.0034472 Eh/α   predicted    -0.9694314E-04 ( -21.66%)
   displ. norm   :     0.0956924 α      lambda       -0.6546269E-04
   maximum displ.:     0.0874344 α      in ANC's #1, #3, #4, ...

........................................................................
.............................. CYCLE    7 ..............................
........................................................................

 iter      E             dE          RMSdq      gap      omega  full diag
   1    -18.2247879 -0.182248E+02  0.406E-02    5.24       0.0  T
   2    -18.2247881 -0.210418E-06  0.241E-02    5.24       1.0  T
   3    -18.2247881 -0.128989E-07  0.170E-03    5.24      14.7  T
   4    -18.2247881 -0.183515E-07  0.730E-04    5.24      34.3  T
   5    -18.2247881  0.115900E-09  0.455E-04    5.24      55.0  T
     SCC iter.                  ...        0 min,  0.003 sec
     gradient                   ...        0 min,  0.004 sec
 * total energy  :   -17.9313631 Eh     change       -0.4383794E-04 Eh
   gradient norm :     0.0020615 Eh/α   predicted    -0.3303180E-04 ( -24.65%)
   displ. norm   :     0.0678571 α      lambda       -0.3577099E-04
   maximum displ.:     0.0642763 α      in ANC's #1, #2, #26, ...

........................................................................
.............................. CYCLE    8 ..............................
........................................................................

 iter      E             dE          RMSdq      gap      omega  full diag
   1    -18.2250125 -0.182250E+02  0.222E-02    5.24       0.0  T
   2    -18.2250126 -0.103122E-06  0.131E-02    5.24       1.9  T
   3    -18.2250126  0.922563E-08  0.166E-03    5.24      15.0  T
   4    -18.2250126 -0.192067E-07  0.517E-04    5.24      48.3  T
   5    -18.2250126 -0.192003E-08  0.234E-04    5.24     106.8  T
     SCC iter.                  ...        0 min,  0.002 sec
     gradient                   ...        0 min,  0.003 sec
 * total energy  :   -17.9313898 Eh     change       -0.2669343E-04 Eh
   gradient norm :     0.0019253 Eh/α   predicted    -0.1796763E-04 ( -32.69%)
   displ. norm   :     0.1119097 α      lambda       -0.3091306E-04
   maximum displ.:     0.0939848 α      in ANC's #1, #2, #3, ...

........................................................................
.............................. CYCLE    9 ..............................
........................................................................

 iter      E             dE          RMSdq      gap      omega  full diag
   1    -18.2249924 -0.182250E+02  0.413E-02    5.23       0.0  T
   2    -18.2249925 -0.882385E-07  0.245E-02    5.23       1.0  T
   3    -18.2249923  0.227786E-06  0.461E-03    5.23       5.4  T
   4    -18.2249926 -0.271079E-06  0.893E-04    5.23      28.0  T
   5    -18.2249926 -0.326183E-08  0.300E-04    5.23      83.2  T
     SCC iter.                  ...        0 min,  0.003 sec
     gradient                   ...        0 min,  0.006 sec
 * total energy  :   -17.9314199 Eh     change       -0.3012716E-04 Eh
   gradient norm :     0.0019977 Eh/α   predicted    -0.1554346E-04 ( -48.41%)
   displ. norm   :     0.0722042 α      lambda       -0.1568361E-04
   maximum displ.:     0.0588304 α      in ANC's #1, #2, #4, ...

........................................................................
.............................. CYCLE   10 ..............................
........................................................................

 iter      E             dE          RMSdq      gap      omega  full diag
   1    -18.2245650 -0.182246E+02  0.268E-02    5.23       0.0  T
   2    -18.2245651 -0.992031E-07  0.159E-02    5.23       1.6  T
   3    -18.2245648  0.301213E-06  0.522E-03    5.23       4.8  T
   4    -18.2245651 -0.337865E-06  0.880E-04    5.23      28.4  T
   5    -18.2245651 -0.660399E-08  0.264E-04    5.23      94.7  T
     SCC iter.                  ...        0 min,  0.003 sec
     gradient                   ...        0 min,  0.004 sec
 * total energy  :   -17.9314329 Eh     change       -0.1298367E-04 Eh
   gradient norm :     0.0016413 Eh/α   predicted    -0.7858603E-05 ( -39.47%)
   displ. norm   :     0.0431726 α      lambda       -0.7328108E-05
   maximum displ.:     0.0361339 α      in ANC's #1, #2, #5, ...

........................................................................
.............................. CYCLE   11 ..............................
........................................................................

 iter      E             dE          RMSdq      gap      omega  full diag
   1    -18.2248372 -0.182248E+02  0.174E-02    5.23       0.0  T
   2    -18.2248373 -0.612111E-07  0.103E-02    5.23       2.4  T
   3    -18.2248370  0.250219E-06  0.505E-03    5.23       4.9  T
   4    -18.2248373 -0.288756E-06  0.634E-04    5.23      39.5  T
   5    -18.2248373 -0.352480E-08  0.203E-04    5.23     123.4  T
     SCC iter.                  ...        0 min,  0.003 sec
     gradient                   ...        0 min,  0.003 sec
 * total energy  :   -17.9314379 Eh     change       -0.5039549E-05 Eh
   gradient norm :     0.0005131 Eh/α   predicted    -0.3668375E-05 ( -27.21%)
   displ. norm   :     0.0121097 α      lambda       -0.1074963E-05
   maximum displ.:     0.0094423 α      in ANC's #1, #2, #26, ...

........................................................................
.............................. CYCLE   12 ..............................
........................................................................

 iter      E             dE          RMSdq      gap      omega  full diag
   1    -18.2248340 -0.182248E+02  0.644E-03    5.23       0.0  T
   2    -18.2248340 -0.337175E-08  0.380E-03    5.23       6.6  T
   3    -18.2248340  0.148812E-08  0.435E-04    5.23      57.4  T
   4    -18.2248340 -0.208867E-08  0.180E-04    5.23     139.0  T
     SCC iter.                  ...        0 min,  0.001 sec
     gradient                   ...        0 min,  0.003 sec
 * total energy  :   -17.9314387 Eh     change       -0.7530672E-06 Eh
   gradient norm :     0.0003119 Eh/α   predicted    -0.5378447E-06 ( -28.58%)
   displ. norm   :     0.0066399 α      lambda       -0.3962272E-06
   maximum displ.:     0.0051601 α      in ANC's #1, #3, #4, ...

   *** GEOMETRY OPTIMIZATION CONVERGED AFTER 12 ITERATIONS ***

------------------------------------------------------------------------
 total energy gain   :        -0.0120853 Eh       -7.5836 kcal/mol
 total RMSD          :         0.4176339 a0        0.2210 Å
 total power (kW/mol):        -2.6441562 (step) -301.8870 (real)
------------------------------------------------------------------------

 ANCopt (total)                0 d,  0 h,  0 min,  0.105 sec
 optimizer setup                ...        0 min,  0.000 sec (  0.085%)
 model hessian                  ...        0 min,  0.005 sec (  5.228%)
 ANC generation                 ...        0 min,  0.001 sec (  0.558%)
 coordinate transformation      ...        0 min,  0.000 sec (  0.079%)
 single point calculation       ...        0 min,  0.095 sec ( 90.157%)
 optimization log               ...        0 min,  0.001 sec (  1.302%)
 hessian update                 ...        0 min,  0.000 sec (  0.128%)
 rational function              ...        0 min,  0.001 sec (  1.336%)

================
 final structure:
================
16
 xtb: 6.6.1 (8d0f1dd)
C           -0.88426378947408       -1.24663757206348       -0.17753754160915
C            0.41845106144479       -1.45801771757455       -0.25874564250445
C            1.44295966978926       -0.37436756606104       -0.11589782130870
C            0.81139756330709        1.00825117667759       -0.25606656055724
C           -0.45058554679487        1.08770181734867        0.59578024212510
C           -1.48977932790484        0.10078853103108        0.07065260340991
H           -1.58143581303640       -2.06433612811971       -0.30121408489558
H            0.80326752653398       -2.45499235978636       -0.42703570303604
H            2.22616270299066       -0.51034960260375       -0.86638928843012
H            1.92076581352433       -0.46707754342872        0.86569828580210
H            0.54882760349947        1.18246540003490       -1.30186869410846
H            1.52483282730347        1.77787559508215        0.04538903732909
H           -0.85711969676996        2.10122156473034        0.58299224303169
H           -0.20163859424801        0.83711123444387        1.62938656158850
H           -2.31465904449251        0.00600204512004        0.78189388517967
H           -1.91708295567244        0.47426112516886       -0.86683752201626

 Bond Distances (Angstroems)
 ---------------------------
C1-C2=1.3222         C1-C6=1.4979         C1-H7=1.0817         C2-C1=1.3222         C2-C3=1.4981         C2-H8=1.0818         
C3-C2=1.4981         C3-C4=1.5265         C3-H9=1.0932         C3-H10=1.0956        C4-C3=1.5265         C4-C5=1.5246         
C4-H11=1.0922        C4-H12=1.0919        C5-C4=1.5246         C5-C6=1.5263         C5-H13=1.0921        C5-H14=1.0923        
C6-C1=1.4979         C6-C5=1.5263         C6-H15=1.0933        C6-H16=1.0959        H7-C1=1.0817         H8-C2=1.0818         
H9-C3=1.0932         H10-C3=1.0956        H11-C4=1.0922        H12-C4=1.0919        H13-C5=1.0921        H14-C5=1.0923        
H15-C6=1.0933        H16-C6=1.0959        
 C  H  Rav=1.0910 sigma=0.0048  Rmin=1.0817  Rmax=1.0959    10
 C  C  Rav=1.4826 sigma=0.0728  Rmin=1.3222  Rmax=1.5265     6

 selected bond angles (degree)
 --------------------
C6-C1-C2=123.52                H7-C1-C2=120.47                H7-C1-C6=116.00                C3-C2-C1=123.52                
H8-C2-C1=120.49                H8-C2-C3=115.99                C4-C3-C2=111.31                H9-C3-C2=109.54                
H9-C3-C4=110.24                H10-C3-C2=108.81               H10-C3-C4=109.84               H10-C3-H9=106.98               
C5-C4-C3=109.78                H11-C4-C3=109.38               H11-C4-C5=109.13               H12-C4-C3=110.04               
H12-C4-C5=110.48               H12-C4-H11=108.00              C6-C5-C4=109.73                H13-C5-C4=110.48               
H13-C5-C6=110.04               H14-C5-C4=109.15               H14-C5-C6=109.41               H14-C5-H13=107.99              
C5-C6-C1=111.31                H15-C6-C1=109.56               H15-C6-C5=110.24               H16-C6-C1=108.81               
H16-C6-C5=109.84               H16-C6-H15=106.97              

 selected dihedral angles (degree)
 ---------------------------------
C3-C2-C1-C6=359.83            C3-C2-C1-H7=179.20            H8-C2-C1-C6=179.20            H8-C2-C1-H7=358.58            
C4-C3-C2-C1=344.26            C4-C3-C2-H8=164.86            H9-C3-C2-C1=222.08            H9-C3-C2-H8= 42.67            
H10-C3-C2-C1=105.44           H10-C3-C2-H8=286.03           C5-C4-C3-C2= 46.98            C5-C4-C3-H9=168.76            
C5-C4-C3-H10=286.41           H11-C4-C3-C2=287.27           H11-C4-C3-H9= 49.05           H11-C4-C3-H10=166.70          
H12-C4-C3-C2=168.78           H12-C4-C3-H9=290.56           H12-C4-C3-H10= 48.20          C6-C5-C4-C3=295.88            
C6-C5-C4-H11= 55.74           C6-C5-C4-H12=174.34           H13-C5-C4-C3=174.38           H13-C5-C4-H11=294.24          
H13-C5-C4-H12= 52.84          H14-C5-C4-C3= 55.77           H14-C5-C4-H11=175.64          H14-C5-C4-H12=294.23          
C5-C6-C1-C2=344.10            C5-C6-C1-H7=164.70            H15-C6-C1-C2=221.92           H15-C6-C1-H7= 42.52           
H16-C6-C1-C2=105.29           H16-C6-C1-H7=285.88           C1-C6-C5-C4= 47.12            C1-C6-C5-H13=168.89           
C1-C6-C5-H14=287.38           H15-C6-C5-C4=168.91           H15-C6-C5-H13=290.68          H15-C6-C5-H14= 49.17          
H16-C6-C5-C4=286.54           H16-C6-C5-H13= 48.31          H16-C6-C5-H14=166.81          
           -------------------------------------------------
          |                Final Singlepoint                |
           -------------------------------------------------

          ...................................................
          :                      SETUP                      :
          :.................................................:
          :  # basis functions                  34          :
          :  # atomic orbitals                  34          :
          :  # shells                           22          :
          :  # electrons                        34          :
          :  max. iterations                   250          :
          :  Hamiltonian                  GFN2-xTB          :
          :  restarted?                      false          :
          :  GBSA solvation                  false          :
          :  PC potential                    false          :
          :  electronic temp.          300.0000000     K    :
          :  accuracy                    1.0000000          :
          :  -> integral cutoff          0.2500000E+02      :
          :  -> integral neglect         0.1000000E-07      :
          :  -> SCF convergence          0.1000000E-05 Eh   :
          :  -> wf. convergence          0.1000000E-03 e    :
          :  Broyden damping             0.4000000          :
          ...................................................

 iter      E             dE          RMSdq      gap      omega  full diag
   1    -18.2248340 -0.182248E+02  0.567E-05    5.23       0.0  T
   2    -18.2248340 -0.273914E-11  0.325E-05    5.23     768.9  T
   3    -18.2248340  0.184031E-11  0.155E-05    5.23    1615.3  T

   *** convergence criteria satisfied after 3 iterations ***

         #    Occupation            Energy/Eh            Energy/eV
      -------------------------------------------------------------
         1        2.0000           -0.6302372             -17.1496
       ...           ...                  ...                  ...
        11        2.0000           -0.4659474             -12.6791
        12        2.0000           -0.4638040             -12.6207
        13        2.0000           -0.4593082             -12.4984
        14        2.0000           -0.4268600             -11.6155
        15        2.0000           -0.4165837             -11.3358
        16        2.0000           -0.4073277             -11.0840
        17        2.0000           -0.3807036             -10.3595 (HOMO)
        18                         -0.1883633              -5.1256 (LUMO)
        19                          0.0984393               2.6787
        20                          0.1024762               2.7885
        21                          0.1097790               2.9872
        22                          0.1233717               3.3571
       ...                                ...                  ...
        34                          0.6417721              17.4635
      -------------------------------------------------------------
                  HL-Gap            0.1923403 Eh            5.2338 eV
             Fermi-level           -0.2845335 Eh           -7.7425 eV

 SCC (total)                   0 d,  0 h,  0 min,  0.007 sec
 SCC setup                      ...        0 min,  0.000 sec (  2.301%)
 Dispersion                     ...        0 min,  0.000 sec (  1.804%)
 classical contributions        ...        0 min,  0.000 sec (  0.794%)
 integral evaluation            ...        0 min,  0.001 sec ( 14.780%)
 iterations                     ...        0 min,  0.001 sec ( 17.092%)
 molecular gradient             ...        0 min,  0.004 sec ( 59.381%)
 printout                       ...        0 min,  0.000 sec (  3.599%)

         :::::::::::::::::::::::::::::::::::::::::::::::::::::
         ::                     SUMMARY                     ::
         :::::::::::::::::::::::::::::::::::::::::::::::::::::
         :: total energy             -17.931438660579 Eh    ::
         :: gradient norm              0.000311512370 Eh/a0 ::
         :: HOMO-LUMO gap              5.233844644480 eV    ::
         ::.................................................::
         :: SCC energy               -18.224834019721 Eh    ::
         :: -> isotropic ES            0.002327880715 Eh    ::
         :: -> anisotropic ES          0.004503809139 Eh    ::
         :: -> anisotropic XC          0.011489539792 Eh    ::
         :: -> dispersion             -0.010085422109 Eh    ::
         :: repulsion energy           0.293375236615 Eh    ::
         :: add. restraining           0.000000000000 Eh    ::
         :: total charge               0.000000000000 e     ::
         :::::::::::::::::::::::::::::::::::::::::::::::::::::

           -------------------------------------------------
          |                Property Printout                |
           -------------------------------------------------

    * Orbital Energies and Occupations

         #    Occupation            Energy/Eh            Energy/eV
      -------------------------------------------------------------
         1        2.0000           -0.6302372             -17.1496
       ...           ...                  ...                  ...
         5        2.0000           -0.5639066             -15.3447
         6        2.0000           -0.5292322             -14.4011
         7        2.0000           -0.5214548             -14.1895
         8        2.0000           -0.4939077             -13.4399
         9        2.0000           -0.4910285             -13.3616
        10        2.0000           -0.4720236             -12.8444
        11        2.0000           -0.4659474             -12.6791
        12        2.0000           -0.4638040             -12.6207
        13        2.0000           -0.4593082             -12.4984
        14        2.0000           -0.4268600             -11.6155
        15        2.0000           -0.4165837             -11.3358
        16        2.0000           -0.4073277             -11.0840
        17        2.0000           -0.3807036             -10.3595 (HOMO)
        18                         -0.1883633              -5.1256 (LUMO)
        19                          0.0984393               2.6787
        20                          0.1024762               2.7885
        21                          0.1097790               2.9872
        22                          0.1233717               3.3571
        23                          0.1261096               3.4316
        24                          0.1465825               3.9887
        25                          0.1565453               4.2598
        26                          0.1925822               5.2404
        27                          0.1970745               5.3627
        28                          0.2365814               6.4377
       ...                                ...                  ...
        34                          0.6417721              17.4635
      -------------------------------------------------------------
                  HL-Gap            0.1923403 Eh            5.2338 eV
             Fermi-level           -0.2845335 Eh           -7.7425 eV

     #   Z          covCN         q      C6AA      α(0)
     1   6 C        2.892    -0.041    29.020     8.832
     2   6 C        2.892    -0.041    29.020     8.832
     3   6 C        3.809    -0.053    21.519     6.603
     4   6 C        3.807    -0.054    21.535     6.606
     5   6 C        3.807    -0.054    21.535     6.606
     6   6 C        3.809    -0.053    21.518     6.603
     7   1 H        0.925     0.021     2.723     2.580
     8   1 H        0.925     0.021     2.723     2.581
     9   1 H        0.924     0.033     2.548     2.496
    10   1 H        0.924     0.037     2.489     2.467
    11   1 H        0.924     0.032     2.552     2.498
    12   1 H        0.924     0.025     2.657     2.549
    13   1 H        0.924     0.025     2.658     2.550
    14   1 H        0.924     0.032     2.552     2.498
    15   1 H        0.924     0.033     2.548     2.496
    16   1 H        0.924     0.037     2.490     2.468

 Mol. C6AA /au·bohr⁶  :       2058.067913
 Mol. C8AA /au·bohr⁸  :      45542.244423
 Mol. α(0) /au        :         69.266519


Wiberg/Mayer (AO) data.
largest (>0.10) Wiberg bond orders for each atom

 ---------------------------------------------------------------------------
     #   Z sym  total        # sym  WBO       # sym  WBO       # sym  WBO
 ---------------------------------------------------------------------------
     1   6 C    3.991 --     2 C    1.929     6 C    1.024     7 H    0.968
     2   6 C    3.991 --     1 C    1.929     3 C    1.024     8 H    0.968
     3   6 C    3.999 --     2 C    1.024     4 C    1.007     9 H    0.968
                            10 H    0.959
     4   6 C    3.999 --     5 C    1.009     3 C    1.007    12 H    0.979
                            11 H    0.979
     5   6 C    3.999 --     4 C    1.009     6 C    1.007    13 H    0.979
                            14 H    0.979
     6   6 C    3.999 --     1 C    1.024     5 C    1.007    15 H    0.968
                            16 H    0.959
     7   1 H    1.000 --     1 C    0.968
     8   1 H    1.000 --     2 C    0.968
     9   1 H    0.999 --     3 C    0.968
    10   1 H    0.999 --     3 C    0.959
    11   1 H    0.999 --     4 C    0.979
    12   1 H    0.999 --     4 C    0.979
    13   1 H    0.999 --     5 C    0.979
    14   1 H    0.999 --     5 C    0.979
    15   1 H    0.999 --     6 C    0.968
    16   1 H    0.999 --     6 C    0.959
 ---------------------------------------------------------------------------

Topologies differ in total number of bonds
Writing topology from bond orders to xtbtopo.mol

molecular dipole:
                 x           y           z       tot (Debye)
 q only:        0.022       0.125       0.020
   full:        0.022       0.127       0.020       0.331
molecular quadrupole (traceless):
                xx          xy          yy          xz          yz          zz
 q only:        0.808      -0.217      -0.430      -0.017      -0.012      -0.378
  q+dip:        1.503      -0.426      -0.728       0.167      -0.034      -0.775
   full:        1.051      -0.321      -0.641       0.108      -0.067      -0.410

           -------------------------------------------------
          |                Geometry Summary                 |
           -------------------------------------------------

      molecular mass/u    :       82.1438229
   center of mass at/Å    :       -0.0203344      -0.1181788      -0.0189930
  moments of inertia/u·Å² :        0.1050919E+03   0.1096362E+03   0.1938962E+03
rotational constants/cm⁻¹ :        0.1604085E+00   0.1537597E+00   0.8694152E-01

 * 14 selected distances

     #   Z          #   Z                                           value/Å
     1   6 C        2   6 C                                       1.3222491
     3   6 C        4   6 C                                       1.5264839 (max)
     4   6 C        5   6 C                                       1.5246499
     5   6 C        6   6 C                                       1.5263293
     1   6 C        7   1 H                                       1.0816542 (min)
     2   6 C        8   1 H                                       1.0818336
     3   6 C        9   1 H                                       1.0932227
     3   6 C       10   1 H                                       1.0956391
     4   6 C       11   1 H                                       1.0922435
     4   6 C       12   1 H                                       1.0918733
     5   6 C       13   1 H                                       1.0920879
     5   6 C       14   1 H                                       1.0922969
     6   6 C       15   1 H                                       1.0932865
     6   6 C       16   1 H                                       1.0958824

 * 2 distinct bonds (by element types)

   Z      Z             #   av. dist./Å        max./Å        min./Å
   1 H    6 C          10     1.0910020     1.0958824     1.0816542
   6 C    6 C           4     1.4749280     1.5264839     1.3222491


optimized geometry written to: xtbopt.xyz


           -------------------------------------------------
          | TOTAL ENERGY              -17.931438660579 Eh   |
          | GRADIENT NORM               0.000311512370 Eh/α |
          | HOMO-LUMO GAP               5.233844644480 eV   |
           -------------------------------------------------

------------------------------------------------------------------------
 * finished run on 2025/05/23 at 11:12:38.185     
------------------------------------------------------------------------
 total:
 * wall-time:     0 d,  0 h,  0 min,  0.132 sec
 *  cpu-time:     0 d,  0 h,  0 min,  0.132 sec
 * ratio c/w:     0.999 speedup
 SCF:
 * wall-time:     0 d,  0 h,  0 min,  0.011 sec
 *  cpu-time:     0 d,  0 h,  0 min,  0.011 sec
 * ratio c/w:     1.000 speedup
 ANC optimizer:
 * wall-time:     0 d,  0 h,  0 min,  0.114 sec
 *  cpu-time:     0 d,  0 h,  0 min,  0.114 sec
 * ratio c/w:     0.999 speedup

