      -----------------------------------------------------------      
     |                   =====================                   |     
     |                           x T B                           |     
     |                   =====================                   |     
     |                         S. Grimme                         |     
     |          Mulliken Center for Theoretical Chemistry        |     
     |                    University of Bonn                     |     
      -----------------------------------------------------------      

   * xtb version 6.6.1 (8d0f1dd) compiled by 'conda@1efc2f54142f' on 2023-08-01

   xtb is free software: you can redistribute it and/or modify it under
   the terms of the GNU Lesser General Public License as published by
   the Free Software Foundation, either version 3 of the License, or
   (at your option) any later version.
   
   xtb is distributed in the hope that it will be useful,
   but WITHOUT ANY WARRANTY; without even the implied warranty of
   MERCHANTABILITY or FITNESS FOR A PARTICULAR PURPOSE.  See the
   GNU Lesser General Public License for more details.
   
   Cite this work as:
   * C. Bannwarth, E. Caldeweyher, S. Ehlert, A. Hansen, P. Pracht,
     J. Seibert, S. Spicher, S. Grimme, WIREs Comput. Mol. Sci., 2020, 11,
     e01493. DOI: 10.1002/wcms.1493
   
   for GFN2-xTB:
   * C. Bannwarth, S. Ehlert and S. Grimme., J. Chem. Theory Comput., 2019,
     15, 1652-1671. DOI: 10.1021/acs.jctc.8b01176
   for GFN1-xTB:
   * S. Grimme, C. Bannwarth, P. Shushkov, J. Chem. Theory Comput., 2017,
     13, 1989-2009. DOI: 10.1021/acs.jctc.7b00118
   for GFN0-xTB:
   * P. Pracht, E. Caldeweyher, S. Ehlert, S. Grimme, ChemRxiv, 2019, preprint.
     DOI: 10.26434/chemrxiv.8326202.v1
   for GFN-FF:
   * S. Spicher and S. Grimme, Angew. Chem. Int. Ed., 2020, 59, 15665-15673.
     DOI: 10.1002/anie.202004239
   
   for ALPB and GBSA implicit solvation:
   * S. Ehlert, M. Stahn, S. Spicher, S. Grimme, J. Chem. Theory Comput.,
     2021, 17, 4250-4261. DOI: 10.1021/acs.jctc.1c00471
   
   for DFT-D4:
   * E. Caldeweyher, C. Bannwarth and S. Grimme, J. Chem. Phys., 2017,
     147, 034112. DOI: 10.1063/1.4993215
   * E. Caldeweyher, S. Ehlert, A. Hansen, H. Neugebauer, S. Spicher,
     C. Bannwarth and S. Grimme, J. Chem. Phys., 2019, 150, 154122.
     DOI: 10.1063/1.5090222
   * E. Caldeweyher, J.-M. Mewes, S. Ehlert and S. Grimme, Phys. Chem. Chem. Phys.
     2020, 22, 8499-8512. DOI: 10.1039/D0CP00502A
   
   for sTDA-xTB:
   * S. Grimme and C. Bannwarth, J. Chem. Phys., 2016, 145, 054103.
     DOI: 10.1063/1.4959605
   
   in the mass-spec context:
   * V. Asgeirsson, C. Bauer and S. Grimme, Chem. Sci., 2017, 8, 4879.
     DOI: 10.1039/c7sc00601b
   * J. Koopman and S. Grimme, ACS Omega 2019, 4, 12, 15120-15133.
     DOI: 10.1021/acsomega.9b02011
   
   for metadynamics refer to:
   * S. Grimme, J. Chem. Theory Comput., 2019, 155, 2847-2862
     DOI: 10.1021/acs.jctc.9b00143
   
   for SPH calculations refer to:
   * S. Spicher and S. Grimme, J. Chem. Theory Comput., 2021, 17, 1701-1714
     DOI: 10.1021/acs.jctc.0c01306
   
   with help from (in alphabetical order)
   P. Atkinson, C. Bannwarth, F. Bohle, G. Brandenburg, E. Caldeweyher
   M. Checinski, S. Dohm, S. Ehlert, S. Ehrlich, I. Gerasimov, C. Hölzer
   A. Katbashev, J. Koopman, C. Lavigne, S. Lehtola, F. März, M. Müller,
   F. Musil, H. Neugebauer, J. Pisarek, C. Plett, P. Pracht, F. Pultar,
   J. Seibert, P. Shushkov, S. Spicher, M. Stahn, M. Steiner, T. Strunk,
   J. Stückrath, T. Rose, and J. Unsleber
   
 * started run on 2025/05/23 at 11:11:30.372     

           -------------------------------------------------
          |                Calculation Setup                |
           -------------------------------------------------

          program call               : /home/avcopan/code/other/saddle-search-practice/.pixi/envs/default/bin/xtb r0_C4H6_conf0_opt_xtb.xyz --chrg 0 --uhf 0 --opt
          coordinate file            : r0_C4H6_conf0_opt_xtb.xyz
          omp threads                :                     1

   ID    Z sym.   atoms
    1    6 C      1-4
    2    1 H      5-10

           -------------------------------------------------
          |                 G F N 2 - x T B                 |
           -------------------------------------------------

        Reference                      10.1021/acs.jctc.8b01176
      * Hamiltonian:
        H0-scaling (s, p, d)           1.850000    2.230000    2.230000
        zeta-weighting                 0.500000
      * Dispersion:
        s8                             2.700000
        a1                             0.520000
        a2                             5.000000
        s9                             5.000000
      * Repulsion:
        kExp                           1.500000    1.000000
        rExp                           1.000000
      * Coulomb:
        alpha                          2.000000
        third order                    shell-resolved
        anisotropic                    true
        a3                             3.000000
        a5                             4.000000
        cn-shift                       1.200000
        cn-exp                         4.000000
        max-rad                        5.000000


          ...................................................
          :                      SETUP                      :
          :.................................................:
          :  # basis functions                  22          :
          :  # atomic orbitals                  22          :
          :  # shells                           14          :
          :  # electrons                        22          :
          :  max. iterations                   250          :
          :  Hamiltonian                  GFN2-xTB          :
          :  restarted?                      false          :
          :  GBSA solvation                  false          :
          :  PC potential                    false          :
          :  electronic temp.          300.0000000     K    :
          :  accuracy                    1.0000000          :
          :  -> integral cutoff          0.2500000E+02      :
          :  -> integral neglect         0.1000000E-07      :
          :  -> SCF convergence          0.1000000E-05 Eh   :
          :  -> wf. convergence          0.1000000E-03 e    :
          :  Broyden damping             0.4000000          :
          ...................................................

 iter      E             dE          RMSdq      gap      omega  full diag
   1    -11.7559504 -0.117560E+02  0.484E+00    3.78       0.0  T
   2    -11.7729905 -0.170402E-01  0.289E+00    3.77       1.0  T
   3    -11.7705352  0.245533E-02  0.917E-01    3.77       1.0  T
   4    -11.7725213 -0.198611E-02  0.524E-01    3.76       1.0  T
   5    -11.7745216 -0.200025E-02  0.749E-02    3.76       1.0  T
   6    -11.7745376 -0.159775E-04  0.463E-02    3.76       1.0  T
   7    -11.7745422 -0.468626E-05  0.464E-03    3.76       6.8  T
   8    -11.7745423 -0.853070E-07  0.129E-03    3.76      24.4  T
   9    -11.7745423 -0.154862E-08  0.496E-04    3.76      63.8  T
  10    -11.7745423 -0.453712E-09  0.812E-05    3.76     389.3  T

   *** convergence criteria satisfied after 10 iterations ***

         #    Occupation            Energy/Eh            Energy/eV
      -------------------------------------------------------------
         1        2.0000           -0.6232848             -16.9604
       ...           ...                  ...                  ...
         5        2.0000           -0.5005048             -13.6194
         6        2.0000           -0.4975153             -13.5381
         7        2.0000           -0.4509316             -12.2705
         8        2.0000           -0.4499305             -12.2432
         9        2.0000           -0.4473391             -12.1727
        10        2.0000           -0.4284167             -11.6578
        11        2.0000           -0.3857398             -10.4965 (HOMO)
        12                         -0.2477278              -6.7410 (LUMO)
        13                         -0.1466501              -3.9906
        14                          0.1034857               2.8160
        15                          0.1292428               3.5169
        16                          0.1636542               4.4533
       ...                                ...                  ...
        22                          0.6543180              17.8049
      -------------------------------------------------------------
                  HL-Gap            0.1380120 Eh            3.7555 eV
             Fermi-level           -0.3167338 Eh           -8.6188 eV

 SCC (total)                   0 d,  0 h,  0 min,  0.012 sec
 SCC setup                      ...        0 min,  0.001 sec ( 11.086%)
 Dispersion                     ...        0 min,  0.000 sec (  0.402%)
 classical contributions        ...        0 min,  0.002 sec ( 12.722%)
 integral evaluation            ...        0 min,  0.002 sec ( 17.556%)
 iterations                     ...        0 min,  0.006 sec ( 47.271%)
 molecular gradient             ...        0 min,  0.001 sec (  9.352%)
 printout                       ...        0 min,  0.000 sec (  1.475%)

         :::::::::::::::::::::::::::::::::::::::::::::::::::::
         ::                     SUMMARY                     ::
         :::::::::::::::::::::::::::::::::::::::::::::::::::::
         :: total energy             -11.551020372721 Eh    ::
         :: gradient norm              0.033941436998 Eh/a0 ::
         :: HOMO-LUMO gap              3.755497818323 eV    ::
         ::.................................................::
         :: SCC energy               -11.774542325265 Eh    ::
         :: -> isotropic ES            0.001701812777 Eh    ::
         :: -> anisotropic ES          0.002716051842 Eh    ::
         :: -> anisotropic XC          0.012163711389 Eh    ::
         :: -> dispersion             -0.004415324199 Eh    ::
         :: repulsion energy           0.223522004317 Eh    ::
         :: add. restraining           0.000000000000 Eh    ::
         :: total charge               0.000000000000 e     ::
         :::::::::::::::::::::::::::::::::::::::::::::::::::::

      ----------------------------------------------------------- 
     |                   =====================                   |
     |                        A N C O P T                        |
     |                   =====================                   |
     |               Approximate Normal Coordinate               |
     |                Rational Function Optimizer                |
      ----------------------------------------------------------- 

          ...................................................
          :                      SETUP                      :
          :.................................................:
          :   optimization level            normal          :
          :   max. optcycles                   200          :
          :   ANC micro-cycles                  20          :
          :   degrees of freedom                24          :
          :.................................................:
          :   RF solver                   davidson          :
          :   write xtbopt.log                true          :
          :   linear?                        false          :
          :   energy convergence         0.5000000E-05 Eh   :
          :   grad. convergence          0.1000000E-02 Eh/α :
          :   maxmium RF displ.          1.0000000          :
          :   Hlow (freq-cutoff)         0.1000000E-01      :
          :   Hmax (freq-cutoff)         5.0000000          :
          :   S6 in model hess.         20.0000000          :
          ...................................................

generating ANC from model Hessian ...
Using Lindh-Hessian (1995)
 Shifting diagonal of input Hessian by    4.4528256473931899E-003
 Lowest  eigenvalues of input Hessian
    0.000000    0.000000    0.000000    0.000000    0.000000    0.000000
    0.010000    0.013434    0.020961    0.021128    0.044734    0.045141
    0.048410    0.096101    0.102763    0.106751    0.120689    0.151078
 Highest eigenvalues
    0.901990    1.173927    1.363517    1.639413    1.766829    2.010436


........................................................................
.............................. CYCLE    1 ..............................
........................................................................

 iter      E             dE          RMSdq      gap      omega  full diag
   1    -11.7745423 -0.117745E+02  0.125E-05    3.76       0.0  T
   2    -11.7745423 -0.408562E-12  0.542E-06    3.76    5831.8  T
   3    -11.7745423  0.142109E-13  0.313E-06    3.76   10103.1  T
     SCC iter.                  ...        0 min,  0.002 sec
     gradient                   ...        0 min,  0.002 sec
 * total energy  :   -11.5510204 Eh     change       -0.2533085E-11 Eh
   gradient norm :     0.0339415 Eh/α   predicted     0.0000000E+00 (-100.00%)
   displ. norm   :     0.1124980 α      lambda       -0.1967960E-02
   maximum displ.:     0.0756189 α      in ANC's #7, #11, #16, ...

........................................................................
.............................. CYCLE    2 ..............................
........................................................................

 iter      E             dE          RMSdq      gap      omega  full diag
   1    -11.7830613 -0.117831E+02  0.152E-01    3.78       0.0  T
   2    -11.7830635 -0.216131E-05  0.906E-02    3.77       1.0  T
   3    -11.7830490  0.145209E-04  0.462E-02    3.77       1.0  T
   4    -11.7830654 -0.164407E-04  0.531E-03    3.77       6.0  T
   5    -11.7830655 -0.934735E-07  0.324E-03    3.77       9.7  T
   6    -11.7830655 -0.386792E-07  0.156E-03    3.77      20.3  T
   7    -11.7830655 -0.690504E-08  0.195E-04    3.77     161.9  T
   8    -11.7830655 -0.377280E-10  0.654E-05    3.77     483.4  T
     SCC iter.                  ...        0 min,  0.004 sec
     gradient                   ...        0 min,  0.003 sec
 * total energy  :   -11.5523644 Eh     change       -0.1344068E-02 Eh
   gradient norm :     0.0123320 Eh/α   predicted    -0.9964325E-03 ( -25.86%)
   displ. norm   :     0.0938567 α      lambda       -0.5585604E-03
   maximum displ.:     0.0771012 α      in ANC's #7, #11, #9, ...

........................................................................
.............................. CYCLE    3 ..............................
........................................................................

 iter      E             dE          RMSdq      gap      omega  full diag
   1    -11.7858459 -0.117858E+02  0.111E-01    3.78       0.0  T
   2    -11.7858466 -0.656976E-06  0.650E-02    3.78       1.0  T
   3    -11.7858448  0.182179E-05  0.166E-02    3.78       1.9  T
   4    -11.7858469 -0.215626E-05  0.249E-03    3.78      12.7  T
   5    -11.7858469  0.103061E-08  0.180E-03    3.78      17.6  T
   6    -11.7858470 -0.120876E-07  0.709E-04    3.78      44.6  T
   7    -11.7858470 -0.224736E-08  0.185E-04    3.78     171.0  T
     SCC iter.                  ...        0 min,  0.003 sec
     gradient                   ...        0 min,  0.002 sec
 * total energy  :   -11.5526753 Eh     change       -0.3108436E-03 Eh
   gradient norm :     0.0033562 Eh/α   predicted    -0.2817399E-03 (  -9.36%)
   displ. norm   :     0.0246939 α      lambda       -0.3430136E-04
   maximum displ.:     0.0226807 α      in ANC's #7, #14, #10, ...

........................................................................
.............................. CYCLE    4 ..............................
........................................................................

 iter      E             dE          RMSdq      gap      omega  full diag
   1    -11.7853691 -0.117854E+02  0.234E-02    3.78       0.0  T
   2    -11.7853691 -0.326250E-07  0.140E-02    3.78       2.3  T
   3    -11.7853689  0.219991E-06  0.554E-03    3.78       5.7  T
   4    -11.7853691 -0.244343E-06  0.600E-04    3.78      52.7  T
   5    -11.7853691 -0.780622E-09  0.387E-04    3.78      81.7  T
     SCC iter.                  ...        0 min,  0.001 sec
     gradient                   ...        0 min,  0.001 sec
 * total energy  :   -11.5526976 Eh     change       -0.2233004E-04 Eh
   gradient norm :     0.0015732 Eh/α   predicted    -0.1716061E-04 ( -23.15%)
   displ. norm   :     0.0176119 α      lambda       -0.7509097E-05
   maximum displ.:     0.0145792 α      in ANC's #7, #9, #10, ...

........................................................................
.............................. CYCLE    5 ..............................
........................................................................

 iter      E             dE          RMSdq      gap      omega  full diag
   1    -11.7848742 -0.117849E+02  0.188E-02    3.79       0.0  T
   2    -11.7848742 -0.167732E-07  0.113E-02    3.79       2.8  T
   3    -11.7848741  0.167618E-06  0.484E-03    3.79       6.5  T
   4    -11.7848742 -0.185451E-06  0.414E-04    3.79      76.3  T
   5    -11.7848742 -0.518172E-09  0.298E-04    3.79     106.3  T
     SCC iter.                  ...        0 min,  0.001 sec
     gradient                   ...        0 min,  0.002 sec
 * total energy  :   -11.5527012 Eh     change       -0.3603683E-05 Eh
   gradient norm :     0.0007900 Eh/α   predicted    -0.3756096E-05 (   4.23%)
   displ. norm   :     0.0061627 α      lambda       -0.1458403E-05
   maximum displ.:     0.0033417 α      in ANC's #5, #6, #7, ...

   *** GEOMETRY OPTIMIZATION CONVERGED AFTER 5 ITERATIONS ***

------------------------------------------------------------------------
 total energy gain   :        -0.0016808 Eh       -1.0547 kcal/mol
 total RMSD          :         0.0737932 a0        0.0390 Å
 total power (kW/mol):        -0.8826116 (step) -117.7033 (real)
------------------------------------------------------------------------

 ANCopt (total)                0 d,  0 h,  0 min,  0.038 sec
 optimizer setup                ...        0 min,  0.000 sec (  0.289%)
 model hessian                  ...        0 min,  0.002 sec (  5.314%)
 ANC generation                 ...        0 min,  0.001 sec (  1.343%)
 coordinate transformation      ...        0 min,  0.000 sec (  0.124%)
 single point calculation       ...        0 min,  0.027 sec ( 71.012%)
 optimization log               ...        0 min,  0.001 sec (  1.849%)
 hessian update                 ...        0 min,  0.000 sec (  0.142%)
 rational function              ...        0 min,  0.007 sec ( 17.855%)

================
 final structure:
================
10
 xtb: 6.6.1 (8d0f1dd)
C            1.82600898502573       -0.09302642597686       -0.10726223665909
C            0.60403585922318        0.38747690569414        0.09330056561142
C           -0.60368536175470       -0.38783020460112       -0.09345576732853
C           -1.82581865535050        0.09292642286876        0.10714540656900
H            2.70787741874130        0.50745517552319        0.03852568948015
H            1.98711570316400       -1.10981924761654       -0.42778335266448
H            0.46687444394923        1.41243495460395        0.41418864834702
H           -0.46665050167637       -1.41287391631062       -0.41436365223377
H           -2.70870648420618       -0.50619533643528       -0.03805558814394
H           -1.98705140711568        1.10945167225038        0.42766028702221

 Bond Distances (Angstroems)
 ---------------------------
C1-C2=1.3283         C1-H5=1.0768         C1-H6=1.0782         C2-C1=1.3283         C2-C3=1.4473         C2-H7=1.0827         
C3-C2=1.4473         C3-C4=1.3285         C3-H8=1.0828         C4-C3=1.3285         C4-H9=1.0768         C4-H10=1.0780        
H5-C1=1.0768         H6-C1=1.0782         H7-C2=1.0827         H8-C3=1.0828         H9-C4=1.0768         H10-C4=1.0780        
 C  H  Rav=1.0792 sigma=0.0026  Rmin=1.0768  Rmax=1.0828     6
 C  C  Rav=1.3680 sigma=0.0560  Rmin=1.3283  Rmax=1.4473     3

 selected bond angles (degree)
 --------------------
H5-C1-C2=122.09                H6-C1-C2=121.57                H6-C1-H5=116.34                C3-C2-C1=123.67                
H7-C2-C1=120.25                H7-C2-C3=116.08                C4-C3-C2=123.66                H8-C3-C2=116.09                
H8-C3-C4=120.25                H9-C4-C3=122.18                H10-C4-C3=121.58               H10-C4-H9=116.24               

 selected dihedral angles (degree)
 ---------------------------------
C3-C2-C1-H5=179.93            C3-C2-C1-H6=  0.03            H7-C2-C1-H5=359.97            H7-C2-C1-H6=180.07            
C4-C3-C2-C1=180.00            C4-C3-C2-H7=359.97            H8-C3-C2-C1=  0.04            H8-C3-C2-H7=180.00            
H9-C4-C3-C2=180.08            H9-C4-C3-H8=  0.04            H10-C4-C3-C2=359.96           H10-C4-C3-H8=179.93           
           -------------------------------------------------
          |                Final Singlepoint                |
           -------------------------------------------------

          ...................................................
          :                      SETUP                      :
          :.................................................:
          :  # basis functions                  22          :
          :  # atomic orbitals                  22          :
          :  # shells                           14          :
          :  # electrons                        22          :
          :  max. iterations                   250          :
          :  Hamiltonian                  GFN2-xTB          :
          :  restarted?                      false          :
          :  GBSA solvation                  false          :
          :  PC potential                    false          :
          :  electronic temp.          300.0000000     K    :
          :  accuracy                    1.0000000          :
          :  -> integral cutoff          0.2500000E+02      :
          :  -> integral neglect         0.1000000E-07      :
          :  -> SCF convergence          0.1000000E-05 Eh   :
          :  -> wf. convergence          0.1000000E-03 e    :
          :  Broyden damping             0.4000000          :
          ...................................................

 iter      E             dE          RMSdq      gap      omega  full diag
   1    -11.7848742 -0.117849E+02  0.106E-04    3.79       0.0  T
   2    -11.7848742 -0.104698E-10  0.716E-05    3.79     441.4  T
   3    -11.7848742 -0.140137E-10  0.413E-05    3.79     766.3  T

   *** convergence criteria satisfied after 3 iterations ***

         #    Occupation            Energy/Eh            Energy/eV
      -------------------------------------------------------------
         1        2.0000           -0.6245213             -16.9941
       ...           ...                  ...                  ...
         5        2.0000           -0.5004900             -13.6190
         6        2.0000           -0.4998176             -13.6007
         7        2.0000           -0.4531314             -12.3303
         8        2.0000           -0.4508393             -12.2680
         9        2.0000           -0.4493780             -12.2282
        10        2.0000           -0.4255352             -11.5794
        11        2.0000           -0.3869101             -10.5284 (HOMO)
        12                         -0.2477952              -6.7429 (LUMO)
        13                         -0.1417459              -3.8571
        14                          0.1156378               3.1467
        15                          0.1265004               3.4423
        16                          0.1741184               4.7380
       ...                                ...                  ...
        22                          0.6752405              18.3742
      -------------------------------------------------------------
                  HL-Gap            0.1391149 Eh            3.7855 eV
             Fermi-level           -0.3173527 Eh           -8.6356 eV

 SCC (total)                   0 d,  0 h,  0 min,  0.004 sec
 SCC setup                      ...        0 min,  0.000 sec (  3.546%)
 Dispersion                     ...        0 min,  0.000 sec (  0.976%)
 classical contributions        ...        0 min,  0.000 sec (  0.434%)
 integral evaluation            ...        0 min,  0.001 sec ( 18.271%)
 iterations                     ...        0 min,  0.001 sec ( 27.068%)
 molecular gradient             ...        0 min,  0.002 sec ( 42.995%)
 printout                       ...        0 min,  0.000 sec (  6.165%)

         :::::::::::::::::::::::::::::::::::::::::::::::::::::
         ::                     SUMMARY                     ::
         :::::::::::::::::::::::::::::::::::::::::::::::::::::
         :: total energy             -11.552701218101 Eh    ::
         :: gradient norm              0.000789865435 Eh/a0 ::
         :: HOMO-LUMO gap              3.785509150140 eV    ::
         ::.................................................::
         :: SCC energy               -11.784874242811 Eh    ::
         :: -> isotropic ES            0.001637188278 Eh    ::
         :: -> anisotropic ES          0.002619519670 Eh    ::
         :: -> anisotropic XC          0.011787763853 Eh    ::
         :: -> dispersion             -0.004407795344 Eh    ::
         :: repulsion energy           0.232173182073 Eh    ::
         :: add. restraining           0.000000000000 Eh    ::
         :: total charge              -0.000000000000 e     ::
         :::::::::::::::::::::::::::::::::::::::::::::::::::::

           -------------------------------------------------
          |                Property Printout                |
           -------------------------------------------------

    * Orbital Energies and Occupations

         #    Occupation            Energy/Eh            Energy/eV
      -------------------------------------------------------------
         1        2.0000           -0.6245213             -16.9941
         2        2.0000           -0.6062403             -16.4966
         3        2.0000           -0.5610544             -15.2671
         4        2.0000           -0.5436853             -14.7944
         5        2.0000           -0.5004900             -13.6190
         6        2.0000           -0.4998176             -13.6007
         7        2.0000           -0.4531314             -12.3303
         8        2.0000           -0.4508393             -12.2680
         9        2.0000           -0.4493780             -12.2282
        10        2.0000           -0.4255352             -11.5794
        11        2.0000           -0.3869101             -10.5284 (HOMO)
        12                         -0.2477952              -6.7429 (LUMO)
        13                         -0.1417459              -3.8571
        14                          0.1156378               3.1467
        15                          0.1265004               3.4423
        16                          0.1741184               4.7380
        17                          0.2002302               5.4485
        18                          0.2116722               5.7599
        19                          0.3719704              10.1218
        20                          0.4484990              12.2043
        21                          0.5527049              15.0399
        22                          0.6752405              18.3742
      -------------------------------------------------------------
                  HL-Gap            0.1391149 Eh            3.7855 eV
             Fermi-level           -0.3173527 Eh           -8.6356 eV

     #   Z          covCN         q      C6AA      α(0)
     1   6 C        2.841    -0.086    30.143     8.998
     2   6 C        2.894    -0.025    28.635     8.774
     3   6 C        2.894    -0.025    28.635     8.774
     4   6 C        2.841    -0.086    30.143     8.998
     5   1 H        0.926     0.036     2.503     2.474
     6   1 H        0.926     0.039     2.460     2.453
     7   1 H        0.925     0.036     2.500     2.472
     8   1 H        0.925     0.036     2.500     2.472
     9   1 H        0.926     0.036     2.504     2.474
    10   1 H        0.926     0.039     2.460     2.453

 Mol. C6AA /au·bohr⁶  :        969.560472
 Mol. C8AA /au·bohr⁸  :      22343.601867
 Mol. α(0) /au        :         50.341351


Wiberg/Mayer (AO) data.
largest (>0.10) Wiberg bond orders for each atom

 ---------------------------------------------------------------------------
     #   Z sym  total        # sym  WBO       # sym  WBO       # sym  WBO
 ---------------------------------------------------------------------------
     1   6 C    3.992 --     2 C    1.888     5 H    0.979     6 H    0.976
                             4 C    0.144
     2   6 C    3.992 --     1 C    1.888     3 C    1.118     7 H    0.964
     3   6 C    3.992 --     4 C    1.888     2 C    1.118     8 H    0.964
     4   6 C    3.992 --     3 C    1.888     9 H    0.979    10 H    0.976
                             1 C    0.144
     5   1 H    0.998 --     1 C    0.979
     6   1 H    0.998 --     1 C    0.976
     7   1 H    0.999 --     2 C    0.964
     8   1 H    0.999 --     3 C    0.964
     9   1 H    0.998 --     4 C    0.979
    10   1 H    0.998 --     4 C    0.976
 ---------------------------------------------------------------------------

Topologies differ in total number of bonds
Writing topology from bond orders to xtbtopo.mol

molecular dipole:
                 x           y           z       tot (Debye)
 q only:        0.000       0.000       0.000
   full:        0.000       0.000       0.000       0.000
molecular quadrupole (traceless):
                xx          xy          yy          xz          yz          zz
 q only:        0.440      -0.048       0.385      -0.077       0.415      -0.825
  q+dip:        1.848      -0.343       1.686      -0.368       1.796      -3.534
   full:        0.811      -0.099       1.020      -0.163       0.976      -1.831

           -------------------------------------------------
          |                Geometry Summary                 |
           -------------------------------------------------

      molecular mass/u    :       54.0905881
   center of mass at/Å    :        0.0001100      -0.0000922      -0.0000572
  moments of inertia/u·Å² :        0.1185306E+02   0.1122217E+03   0.1240747E+03
rotational constants/cm⁻¹ :        0.1422218E+01   0.1502173E+00   0.1358668E+00

 * 8 selected distances

     #   Z          #   Z                                           value/Å
     1   6 C        2   6 C                                       1.3282799
     3   6 C        4   6 C                                       1.3285247 (max)
     1   6 C        5   1 H                                       1.0768122
     1   6 C        6   1 H                                       1.0782194
     2   6 C        7   1 H                                       1.0827380
     3   6 C        8   1 H                                       1.0828090
     4   6 C        9   1 H                                       1.0768107 (min)
     4   6 C       10   1 H                                       1.0779840

 * 2 distinct bonds (by element types)

   Z      Z             #   av. dist./Å        max./Å        min./Å
   1 H    6 C           6     1.0792289     1.0828090     1.0768107
   6 C    6 C           2     1.3284023     1.3285247     1.3282799


optimized geometry written to: xtbopt.xyz


           -------------------------------------------------
          | TOTAL ENERGY              -11.552701218101 Eh   |
          | GRADIENT NORM               0.000789865435 Eh/α |
          | HOMO-LUMO GAP               3.785509150140 eV   |
           -------------------------------------------------

------------------------------------------------------------------------
 * finished run on 2025/05/23 at 11:11:30.456     
------------------------------------------------------------------------
 total:
 * wall-time:     0 d,  0 h,  0 min,  0.083 sec
 *  cpu-time:     0 d,  0 h,  0 min,  0.048 sec
 * ratio c/w:     0.582 speedup
 SCF:
 * wall-time:     0 d,  0 h,  0 min,  0.012 sec
 *  cpu-time:     0 d,  0 h,  0 min,  0.005 sec
 * ratio c/w:     0.393 speedup
 ANC optimizer:
 * wall-time:     0 d,  0 h,  0 min,  0.043 sec
 *  cpu-time:     0 d,  0 h,  0 min,  0.035 sec
 * ratio c/w:     0.818 speedup

