
                                 *****************
                                 * O   R   C   A *
                                 *****************

                                            #,                                       
                                            ###                                      
                                            ####                                     
                                            #####                                    
                                            ######                                   
                                           ########,                                 
                                     ,,################,,,,,                         
                               ,,#################################,,                 
                          ,,##########################################,,             
                       ,#########################################, ''#####,          
                    ,#############################################,,   '####,        
                  ,##################################################,,,,####,       
                ,###########''''           ''''###############################       
              ,#####''   ,,,,##########,,,,          '''####'''          '####       
            ,##' ,,,,###########################,,,                        '##       
           ' ,,###''''                  '''############,,,                           
         ,,##''                                '''############,,,,        ,,,,,,###''
      ,#''                                            '''#######################'''  
     '                                                          ''''####''''         
             ,#######,   #######,   ,#######,      ##                                
            ,#'     '#,  ##    ##  ,#'     '#,    #''#        ######   ,####,        
            ##       ##  ##   ,#'  ##            #'  '#       #        #'  '#        
            ##       ##  #######   ##           ,######,      #####,   #    #        
            '#,     ,#'  ##    ##  '#,     ,#' ,#      #,         ##   #,  ,#        
             '#######'   ##     ##  '#######'  #'      '#     #####' # '####'        



                  #######################################################
                  #                        -***-                        #
                  #          Department of theory and spectroscopy      #
                  #    Directorship and core code : Frank Neese         #
                  #        Max Planck Institute fuer Kohlenforschung    #
                  #                Kaiser Wilhelm Platz 1               #
                  #                 D-45470 Muelheim/Ruhr               #
                  #                      Germany                        #
                  #                                                     #
                  #                  All rights reserved                #
                  #                        -***-                        #
                  #######################################################


                         Program Version 5.0.4 -  RELEASE  -


 With contributions from (in alphabetic order):
   Daniel Aravena         : Magnetic Suceptibility
   Michael Atanasov       : Ab Initio Ligand Field Theory (pilot matlab implementation)
   Alexander A. Auer      : GIAO ZORA, VPT2 properties, NMR spectrum
   Ute Becker             : Parallelization
   Giovanni Bistoni       : ED, misc. LED, open-shell LED, HFLD
   Martin Brehm           : Molecular dynamics
   Dmytro Bykov           : SCF Hessian
   Vijay G. Chilkuri      : MRCI spin determinant printing, contributions to CSF-ICE
   Dipayan Datta          : RHF DLPNO-CCSD density
   Achintya Kumar Dutta   : EOM-CC, STEOM-CC
   Dmitry Ganyushin       : Spin-Orbit,Spin-Spin,Magnetic field MRCI
   Miquel Garcia          : C-PCM and meta-GGA Hessian, CC/C-PCM, Gaussian charge scheme
   Yang Guo               : DLPNO-NEVPT2, F12-NEVPT2, CIM, IAO-localization
   Andreas Hansen         : Spin unrestricted coupled pair/coupled cluster methods
   Benjamin Helmich-Paris : MC-RPA, TRAH-SCF, COSX integrals
   Lee Huntington         : MR-EOM, pCC
   Robert Izsak           : Overlap fitted RIJCOSX, COSX-SCS-MP3, EOM
   Marcus Kettner         : VPT2
   Christian Kollmar      : KDIIS, OOCD, Brueckner-CCSD(T), CCSD density, CASPT2, CASPT2-K
   Simone Kossmann        : Meta GGA functionals, TD-DFT gradient, OOMP2, MP2 Hessian
   Martin Krupicka        : Initial AUTO-CI
   Lucas Lang             : DCDCAS
   Marvin Lechner         : AUTO-CI (C++ implementation), FIC-MRCC
   Dagmar Lenk            : GEPOL surface, SMD
   Dimitrios Liakos       : Extrapolation schemes; Compound Job, initial MDCI parallelization
   Dimitrios Manganas     : Further ROCIS development; embedding schemes
   Dimitrios Pantazis     : SARC Basis sets
   Anastasios Papadopoulos: AUTO-CI, single reference methods and gradients
   Taras Petrenko         : DFT Hessian,TD-DFT gradient, ASA, ECA, R-Raman, ABS, FL, XAS/XES, NRVS
   Peter Pinski           : DLPNO-MP2, DLPNO-MP2 Gradient
   Christoph Reimann      : Effective Core Potentials
   Marius Retegan         : Local ZFS, SOC
   Christoph Riplinger    : Optimizer, TS searches, QM/MM, DLPNO-CCSD(T), (RO)-DLPNO pert. Triples
   Tobias Risthaus        : Range-separated hybrids, TD-DFT gradient, RPA, STAB
   Michael Roemelt        : Original ROCIS implementation
   Masaaki Saitow         : Open-shell DLPNO-CCSD energy and density
   Barbara Sandhoefer     : DKH picture change effects
   Avijit Sen             : IP-ROCIS
   Kantharuban Sivalingam : CASSCF convergence, NEVPT2, FIC-MRCI
   Bernardo de Souza      : ESD, SOC TD-DFT
   Georgi Stoychev        : AutoAux, RI-MP2 NMR, DLPNO-MP2 response
   Willem Van den Heuvel  : Paramagnetic NMR
   Boris Wezisla          : Elementary symmetry handling
   Frank Wennmohs         : Technical directorship


 We gratefully acknowledge several colleagues who have allowed us to
 interface, adapt or use parts of their codes:
   Stefan Grimme, W. Hujo, H. Kruse, P. Pracht,  : VdW corrections, initial TS optimization,
                  C. Bannwarth, S. Ehlert          DFT functionals, gCP, sTDA/sTD-DF
   Ed Valeev, F. Pavosevic, A. Kumar             : LibInt (2-el integral package), F12 methods
   Garnet Chan, S. Sharma, J. Yang, R. Olivares  : DMRG
   Ulf Ekstrom                                   : XCFun DFT Library
   Mihaly Kallay                                 : mrcc  (arbitrary order and MRCC methods)
   Jiri Pittner, Ondrej Demel                    : Mk-CCSD
   Frank Weinhold                                : gennbo (NPA and NBO analysis)
   Christopher J. Cramer and Donald G. Truhlar   : smd solvation model
   Lars Goerigk                                  : TD-DFT with DH, B97 family of functionals
   V. Asgeirsson, H. Jonsson                     : NEB implementation
   FAccTs GmbH                                   : IRC, NEB, NEB-TS, DLPNO-Multilevel, CI-OPT
                                                   MM, QMMM, 2- and 3-layer-ONIOM, Crystal-QMMM,
                                                   LR-CPCM, SF, NACMEs, symmetry and pop. for TD-DFT,
                                                   nearIR, NL-DFT gradient (VV10), updates on ESD,
                                                   ML-optimized integration grids
   S Lehtola, MJT Oliveira, MAL Marques          : LibXC Library
   Liviu Ungur et al                             : ANISO software


 Your calculation uses the libint2 library for the computation of 2-el integrals
 For citations please refer to: http://libint.valeyev.net

 Your ORCA version has been built with support for libXC version: 5.1.0
 For citations please refer to: https://tddft.org/programs/libxc/

 This ORCA versions uses:
   CBLAS   interface :  Fast vector & matrix operations
   LAPACKE interface :  Fast linear algebra routines
   SCALAPACK package :  Parallel linear algebra routines
   Shared memory     :  Shared parallel matrices
   BLAS/LAPACK       :  OpenBLAS 0.3.15  USE64BITINT DYNAMIC_ARCH NO_AFFINITY Haswell SINGLE_THREADED
        Core in use  :  Haswell
   Copyright (c) 2011-2014, The OpenBLAS Project


Your calculation utilizes the atom-pairwise dispersion correction
with the Becke-Johnson damping scheme (D3BJ)
Cite in your paper:
S.Grimme, S.Ehrlich, L.Goerigk, J Comput Chem, (2011), 32, 1456–1465 
S.Grimme, J.Antony, S.Ehrlich and H.Krieg, J.Chem.Phys., 132, (2010), 154104 
   

================================================================================

----- Orbital basis set information -----
Your calculation utilizes the basis: def2-SVP
   F. Weigend and R. Ahlrichs, Phys. Chem. Chem. Phys. 7, 3297 (2005).

----- AuxJ basis set information -----
Your calculation utilizes the auxiliary basis: def2/J
   F. Weigend, Phys. Chem. Chem. Phys. 8, 1057 (2006).

================================================================================
                                        WARNINGS
                       Please study these warnings very carefully!
================================================================================


WARNING: Geometry Optimization
  ===> : Switching off AutoStart
         For restart on a previous wavefunction, please use MOREAD

INFO   : the flag for use of the SHARK integral package has been found!

================================================================================
                                       INPUT FILE
================================================================================
NAME = r1_C2H4_opt_orca.inp
|  1> ! Opt PBE0 RIJCOSX D3BJ def2-SVP def2/J 
|  2> %output 
|  3> xyzfile=True 
|  4> end 
|  5> %scf 
|  6> maxiter 250 
|  7> end
|  8> %output
|  9> Print[P_Hirshfeld] = 1
| 10> end
| 11> % maxcore
| 12> 4000
| 13> *xyz 0 1
| 14> C    0.66373722   0.03918017   0.01040352 
| 15> C   -0.66370927  -0.03915962  -0.01037048 
| 16> H    1.29438820  -0.85492546   0.04054664 
| 17> H    1.18568448   1.00116740  -0.00144274 
| 18> H   -1.29444511   0.85488825  -0.04052547 
| 19> H   -1.18565552  -1.00115074   0.00148853 
| 20> *
| 21> 
| 22>                          ****END OF INPUT****
================================================================================

                       *****************************
                       * Geometry Optimization Run *
                       *****************************

Geometry optimization settings:
Update method            Update   .... BFGS
Choice of coordinates    CoordSys .... Z-matrix Internals
Initial Hessian          InHess   .... Almoef's Model

Convergence Tolerances:
Energy Change            TolE     ....  5.0000e-06 Eh
Max. Gradient            TolMAXG  ....  3.0000e-04 Eh/bohr
RMS Gradient             TolRMSG  ....  1.0000e-04 Eh/bohr
Max. Displacement        TolMAXD  ....  4.0000e-03 bohr
RMS Displacement         TolRMSD  ....  2.0000e-03 bohr
Strict Convergence                ....  False
------------------------------------------------------------------------------
                        ORCA OPTIMIZATION COORDINATE SETUP
------------------------------------------------------------------------------

The optimization will be done in new redundant internal coordinates
Making redundant internal coordinates   ...  (new redundants) done
Evaluating the initial hessian          ...  (Almloef) done
Evaluating the coordinates              ...  done
Calculating the B-matrix                .... done
Calculating the G-matrix                .... done
Diagonalizing the G-matrix              .... done
The first mode is                       ....    3
The number of degrees of freedom        ....   12

    -----------------------------------------------------------------
                    Redundant Internal Coordinates


    -----------------------------------------------------------------
         Definition                    Initial Value    Approx d2E/dq
    -----------------------------------------------------------------
      1. B(C   1,C   0)                  1.3299         0.779103   
      2. B(H   2,C   0)                  1.0946         0.354122   
      3. B(H   3,C   0)                  1.0945         0.354161   
      4. B(H   4,C   1)                  1.0946         0.354120   
      5. B(H   5,C   1)                  1.0945         0.354157   
      6. A(H   2,C   0,H   3)          116.3267         0.289321   
      7. A(C   1,C   0,H   2)          121.8307         0.365861   
      8. A(C   1,C   0,H   3)          121.8426         0.365868   
      9. A(H   4,C   1,H   5)          116.3215         0.289320   
     10. A(C   0,C   1,H   5)          121.8424         0.365867   
     11. A(C   0,C   1,H   4)          121.8361         0.365861   
     12. D(H   4,C   1,C   0,H   3)      0.0165         0.043619   
     13. D(H   5,C   1,C   0,H   2)     -0.0150         0.043619   
     14. D(H   5,C   1,C   0,H   3)   -179.9992         0.043619   
     15. D(H   4,C   1,C   0,H   2)   -179.9993         0.043619   
    -----------------------------------------------------------------

Number of atoms                         .... 6
Number of degrees of freedom            .... 15

         *************************************************************
         *                GEOMETRY OPTIMIZATION CYCLE   1            *
         *************************************************************
---------------------------------
CARTESIAN COORDINATES (ANGSTROEM)
---------------------------------
  C      0.663737    0.039180    0.010404
  C     -0.663709   -0.039160   -0.010370
  H      1.294388   -0.854925    0.040547
  H      1.185684    1.001167   -0.001443
  H     -1.294445    0.854888   -0.040525
  H     -1.185656   -1.001151    0.001489

----------------------------
CARTESIAN COORDINATES (A.U.)
----------------------------
  NO LB      ZA    FRAG     MASS         X           Y           Z
   0 C     6.0000    0    12.011    1.254282    0.074040    0.019660
   1 C     6.0000    0    12.011   -1.254229   -0.074001   -0.019597
   2 H     1.0000    0     1.008    2.446039   -1.615575    0.076622
   3 H     1.0000    0     1.008    2.240619    1.891932   -0.002726
   4 H     1.0000    0     1.008   -2.446147    1.615505   -0.076582
   5 H     1.0000    0     1.008   -2.240564   -1.891901    0.002813

--------------------------------
INTERNAL COORDINATES (ANGSTROEM)
--------------------------------
 C      0   0   0     0.000000000000     0.00000000     0.00000000
 C      1   0   0     1.329918368016     0.00000000     0.00000000
 H      1   2   0     1.094556596918   121.83072614     0.00000000
 H      1   2   3     1.094526704462   121.84259788   180.01577704
 H      2   1   3     1.094558640336   121.83609961   180.00072003
 H      2   1   3     1.094529779844   121.84243763     0.00000000

---------------------------
INTERNAL COORDINATES (A.U.)
---------------------------
 C      0   0   0     0.000000000000     0.00000000     0.00000000
 C      1   0   0     2.513181496022     0.00000000     0.00000000
 H      1   2   0     2.068412206251   121.83072614     0.00000000
 H      1   2   3     2.068355717697   121.84259788   180.01577704
 H      2   1   3     2.068416067752   121.83609961   180.00072003
 H      2   1   3     2.068361529327   121.84243763     0.00000000

---------------------
BASIS SET INFORMATION
---------------------
There are 2 groups of distinct atoms

 Group   1 Type C   : 7s4p1d contracted to 3s2p1d pattern {511/31/1}
 Group   2 Type H   : 4s1p contracted to 2s1p pattern {31/1}

Atom   0C    basis set group =>   1
Atom   1C    basis set group =>   1
Atom   2H    basis set group =>   2
Atom   3H    basis set group =>   2
Atom   4H    basis set group =>   2
Atom   5H    basis set group =>   2
---------------------------------
AUXILIARY/J BASIS SET INFORMATION
---------------------------------
There are 2 groups of distinct atoms

 Group   1 Type C   : 12s5p4d2f1g contracted to 6s4p3d1f1g pattern {711111/2111/211/2/1}
 Group   2 Type H   : 5s2p1d contracted to 3s1p1d pattern {311/2/1}

Atom   0C    basis set group =>   1
Atom   1C    basis set group =>   1
Atom   2H    basis set group =>   2
Atom   3H    basis set group =>   2
Atom   4H    basis set group =>   2
Atom   5H    basis set group =>   2
------------------------------------------------------------------------------
                           ORCA GTO INTEGRAL CALCULATION
                           -- RI-GTO INTEGRALS CHOSEN --
------------------------------------------------------------------------------
------------------------------------------------------------------------------
                   ___                                                        
                  /   \      - P O W E R E D   B Y -                         
                 /     \                                                     
                 |  |  |   _    _      __       _____    __    __             
                 |  |  |  | |  | |    /  \     |  _  \  |  |  /  |          
                  \  \/   | |  | |   /    \    | | | |  |  | /  /          
                 / \  \   | |__| |  /  /\  \   | |_| |  |  |/  /          
                |  |  |   |  __  | /  /__\  \  |    /   |      \           
                |  |  |   | |  | | |   __   |  |    \   |  |\   \          
                \     /   | |  | | |  |  |  |  | |\  \  |  | \   \       
                 \___/    |_|  |_| |__|  |__|  |_| \__\ |__|  \__/        
                                                                              
                      - O R C A' S   B I G   F R I E N D -                    
                                      &                                       
                       - I N T E G R A L  F E E D E R -                       
                                                                              
 v1 FN, 2020, v2 2021                                                         
------------------------------------------------------------------------------


Reading SHARK input file r1_C2H4_opt_orca.SHARKINP.tmp ... ok
----------------------
SHARK INTEGRAL PACKAGE
----------------------

Number of atoms                             ...      6
Number of basis functions                   ...     48
Number of shells                            ...     24
Maximum angular momentum                    ...      2
Integral batch strategy                     ... SHARK/LIBINT Hybrid
RI-J (if used) integral strategy            ... SPLIT-RIJ (Revised 2003 algorithm where possible)
Printlevel                                  ...      1
Contraction scheme used                     ... SEGMENTED contraction
Coulomb Range Separation                    ... NOT USED
Exchange Range Separation                   ... NOT USED
Finite Nucleus Model                        ... NOT USED
Auxiliary Coulomb fitting basis             ... AVAILABLE
   # of basis functions in Aux-J            ...    142
   # of shells in Aux-J                     ...     50
   Maximum angular momentum in Aux-J        ...      4
Auxiliary J/K fitting basis                 ... NOT available
Auxiliary Correlation fitting basis         ... NOT available
Auxiliary 'external' fitting basis          ... NOT available
Integral threshold                          ...     2.500000e-11
Primitive cut-off                           ...     2.500000e-12
Primitive pair pre-selection threshold      ...     2.500000e-12

Calculating pre-screening integrals         ... done (  0.0 sec) Dimension = 24
Organizing shell pair data                  ... done (  0.0 sec)
Shell pair information
Total number of shell pairs                 ...       300
Shell pairs after pre-screening             ...       300
Total number of primitive shell pairs       ...      1028
Primitive shell pairs kept                  ...       935
          la=0 lb=0:    105 shell pairs
          la=1 lb=0:    112 shell pairs
          la=1 lb=1:     36 shell pairs
          la=2 lb=0:     28 shell pairs
          la=2 lb=1:     16 shell pairs
          la=2 lb=2:      3 shell pairs

Calculating one electron integrals          ... done (  0.0 sec)
Calculating RI/J V-Matrix + Cholesky decomp.... done (  0.0 sec)
Calculating Nuclear repulsion               ... done (  0.0 sec) ENN=     33.249080820762 Eh

SHARK setup successfully completed in   0.1 seconds

Maximum memory used throughout the entire GTOINT-calculation: 9.0 MB
-------------------------------------------------------------------------------
                                 ORCA SCF
-------------------------------------------------------------------------------

------------
SCF SETTINGS
------------
Hamiltonian:
 Density Functional     Method          .... DFT(GTOs)
 Exchange Functional    Exchange        .... PBE
   PBE kappa parameter   XKappa         ....  0.804000
   PBE mue parameter    XMuePBE         ....  0.219520
 Correlation Functional Correlation     .... PBE
   PBE beta parameter  CBetaPBE         ....  0.066725
 LDA part of GGA corr.  LDAOpt          .... PW91-LDA
 Gradients option       PostSCFGGA      .... off
 Hybrid DFT is turned on
   Fraction HF Exchange ScalHFX         ....  0.250000
   Scaling of DF-GGA-X  ScalDFX         ....  0.750000
   Scaling of DF-GGA-C  ScalDFC         ....  1.000000
   Scaling of DF-LDA-C  ScalLDAC        ....  1.000000
   Perturbative correction              ....  0.000000
   Density functional embedding theory  .... OFF
   NL short-range parameter             ....  6.900000
 RI-approximation to the Coulomb term is turned on
   Number of AuxJ basis functions       .... 142
   RIJ-COSX (HFX calculated with COS-X)).... on


General Settings:
 Integral files         IntName         .... r1_C2H4_opt_orca
 Hartree-Fock type      HFTyp           .... RHF
 Total Charge           Charge          ....    0
 Multiplicity           Mult            ....    1
 Number of Electrons    NEL             ....   16
 Basis Dimension        Dim             ....   48
 Nuclear Repulsion      ENuc            ....     33.2490808208 Eh

Convergence Acceleration:
 DIIS                   CNVDIIS         .... on
   Start iteration      DIISMaxIt       ....    12
   Startup error        DIISStart       ....  0.200000
   # of expansion vecs  DIISMaxEq       ....     5
   Bias factor          DIISBfac        ....   1.050
   Max. coefficient     DIISMaxC        ....  10.000
 Trust-Rad. Augm. Hess. CNVTRAH         .... auto
   Auto Start mean grad. ratio tolernc. ....  1.125000
   Auto Start start iteration           ....    20
   Auto Start num. interpolation iter.  ....    10
   Max. Number of Micro iterations      ....    16
   Max. Number of Macro iterations      .... Maxiter - #DIIS iter
   Number of Davidson start vectors     ....     2
   Converg. threshold I  (grad. norm)   ....   1.000e-05
   Converg. threshold II (energy diff.) ....   1.000e-08
   Grad. Scal. Fac. for Micro threshold ....   0.100
   Minimum threshold for Micro iter.    ....   0.010
   NR start threshold (gradient norm)   ....   0.001
   Initial trust radius                 ....   0.400
   Minimum AH scaling param. (alpha)    ....   1.000
   Maximum AH scaling param. (alpha)    .... 1000.000
   Orbital update algorithm             .... Taylor
   White noise on init. David. guess    .... on
   Maximum white noise                  ....   0.010
   Quad. conv. algorithm                .... NR
 SOSCF                  CNVSOSCF        .... on
   Start iteration      SOSCFMaxIt      ....   150
   Startup grad/error   SOSCFStart      ....  0.003300
 Level Shifting         CNVShift        .... on
   Level shift para.    LevelShift      ....    0.2500
   Turn off err/grad.   ShiftErr        ....    0.0010
 Zerner damping         CNVZerner       .... off
 Static damping         CNVDamp         .... on
   Fraction old density DampFac         ....    0.7000
   Max. Damping (<1)    DampMax         ....    0.9800
   Min. Damping (>=0)   DampMin         ....    0.0000
   Turn off err/grad.   DampErr         ....    0.1000
 Fernandez-Rico         CNVRico         .... off

SCF Procedure:
 Maximum # iterations   MaxIter         ....   250
 SCF integral mode      SCFMode         .... Direct
   Integral package                     .... SHARK and LIBINT hybrid scheme
 Reset frequency        DirectResetFreq ....    20
 Integral Threshold     Thresh          ....  2.500e-11 Eh
 Primitive CutOff       TCut            ....  2.500e-12 Eh

Convergence Tolerance:
 Convergence Check Mode ConvCheckMode   .... Total+1el-Energy
 Convergence forced     ConvForced      .... 0
 Energy Change          TolE            ....  1.000e-08 Eh
 1-El. energy change                    ....  1.000e-05 Eh
 Orbital Gradient       TolG            ....  1.000e-05
 Orbital Rotation angle TolX            ....  1.000e-05
 DIIS Error             TolErr          ....  5.000e-07


Diagonalization of the overlap matrix:
Smallest eigenvalue                        ... 3.934e-03
Time for diagonalization                   ...    0.000 sec
Threshold for overlap eigenvalues          ... 1.000e-08
Number of eigenvalues below threshold      ... 0
Time for construction of square roots      ...    0.000 sec
Total time needed                          ...    0.001 sec

Time for model grid setup =    0.023 sec

------------------------------
INITIAL GUESS: MODEL POTENTIAL
------------------------------
Loading Hartree-Fock densities                     ... done
Calculating cut-offs                               ... done
Initializing the effective Hamiltonian             ... done
Setting up the integral package (SHARK)            ... done
Starting the Coulomb interaction                   ... done (   0.0 sec)
Reading the grid                                   ... done
Mapping shells                                     ... done
Starting the XC term evaluation                    ... done (   0.0 sec)
  promolecular density results
     # of electrons  =     15.998704433
     EX              =    -11.347525556
     EC              =     -0.487840522
     EX+EC           =    -11.835366078
Transforming the Hamiltonian                       ... done (   0.0 sec)
Diagonalizing the Hamiltonian                      ... done (   0.0 sec)
Back transforming the eigenvectors                 ... done (   0.0 sec)
Now organizing SCF variables                       ... done
                      ------------------
                      INITIAL GUESS DONE (   0.1 sec)
                      ------------------
-------------------
DFT GRID GENERATION
-------------------

General Integration Accuracy     IntAcc      ... 4.388
Radial Grid Type                 RadialGrid  ... OptM3 with GC (2021)
Angular Grid (max. ang.)         AngularGrid ... 4 (Lebedev-302)
Angular grid pruning method      GridPruning ... 4 (adaptive)
Weight generation scheme         WeightScheme... Becke
Basis function cutoff            BFCut       ... 1.0000e-11
Integration weight cutoff        WCut        ... 1.0000e-14
Angular grids for H and He will be reduced by one unit
Partially contracted basis set               ... off
Rotationally invariant grid construction     ... off

Total number of grid points                  ...    25300
Total number of batches                      ...      400
Average number of points per batch           ...       63
Average number of grid points per atom       ...     4217
Time for grid setup =    0.116 sec

--------------------
COSX GRID GENERATION
--------------------

GRIDX 1
-------
General Integration Accuracy     IntAcc      ... 3.816
Radial Grid Type                 RadialGrid  ... OptM3 with GC (2021)
Angular Grid (max. ang.)         AngularGrid ... 1 (Lebedev-50)
Angular grid pruning method      GridPruning ... 4 (adaptive)
Weight generation scheme         WeightScheme... Becke
Basis function cutoff            BFCut       ... 1.0000e-11
Integration weight cutoff        WCut        ... 1.0000e-14
Angular grids for H and He will be reduced by one unit
Partially contracted basis set               ... on
Rotationally invariant grid construction     ... off

Total number of grid points                  ...     3282
Total number of batches                      ...       54
Average number of points per batch           ...       60
Average number of grid points per atom       ...      547
UseSFitting                                  ... on

GRIDX 2
-------
General Integration Accuracy     IntAcc      ... 4.020
Radial Grid Type                 RadialGrid  ... OptM3 with GC (2021)
Angular Grid (max. ang.)         AngularGrid ... 2 (Lebedev-110)
Angular grid pruning method      GridPruning ... 4 (adaptive)
Weight generation scheme         WeightScheme... Becke
Basis function cutoff            BFCut       ... 1.0000e-11
Integration weight cutoff        WCut        ... 1.0000e-14
Angular grids for H and He will be reduced by one unit
Partially contracted basis set               ... on
Rotationally invariant grid construction     ... off

Total number of grid points                  ...     6908
Total number of batches                      ...      110
Average number of points per batch           ...       62
Average number of grid points per atom       ...     1151
UseSFitting                                  ... on

GRIDX 3
-------
General Integration Accuracy     IntAcc      ... 4.338
Radial Grid Type                 RadialGrid  ... OptM3 with GC (2021)
Angular Grid (max. ang.)         AngularGrid ... 3 (Lebedev-194)
Angular grid pruning method      GridPruning ... 4 (adaptive)
Weight generation scheme         WeightScheme... Becke
Basis function cutoff            BFCut       ... 1.0000e-11
Integration weight cutoff        WCut        ... 1.0000e-14
Angular grids for H and He will be reduced by one unit
Partially contracted basis set               ... on
Rotationally invariant grid construction     ... off

Total number of grid points                  ...    15210
Total number of batches                      ...      240
Average number of points per batch           ...       63
Average number of grid points per atom       ...     2535
UseSFitting                                  ... on

Time for X-Grid setup             =    0.099 sec

--------------
SCF ITERATIONS
--------------
ITER       Energy         Delta-E        Max-DP      RMS-DP      [F,P]     Damp
               ***  Starting incremental Fock matrix formation  ***
  0    -78.3591895823   0.000000000000 0.05556150  0.00335415  0.1485314 0.7000
  1    -78.3887401262  -0.029550543878 0.03655565  0.00245544  0.0835861 0.7000
                               ***Turning on DIIS***
  2    -78.4021207669  -0.013380640702 0.05675534  0.00430899  0.0370505 0.0000
  3    -78.4203610306  -0.018240263695 0.02578164  0.00166183  0.0402251 0.0000
  4    -78.4253749542  -0.005013923561 0.00450431  0.00043646  0.0087915 0.0000
                      *** Initiating the SOSCF procedure ***
                           *** Shutting down DIIS ***
                      *** Re-Reading the Fockian *** 
                      *** Removing any level shift *** 
ITER      Energy       Delta-E        Grad      Rot      Max-DP    RMS-DP
  5    -78.42562181  -0.0002468538  0.000800  0.000800  0.001470  0.000144
               *** Restarting incremental Fock matrix formation ***
  6    -78.42562420  -0.0000023889  0.000335  0.000595  0.000908  0.000093
  7    -78.42562458  -0.0000003788  0.000304  0.000200  0.000387  0.000023
  8    -78.42562522  -0.0000006460  0.000012  0.000012  0.000017  0.000002
  9    -78.42562522   0.0000000004  0.000004  0.000003  0.000003  0.000000
                 **** Energy Check signals convergence ****
              ***Rediagonalizing the Fockian in SOSCF/NRSCF***

               *****************************************************
               *                     SUCCESS                       *
               *           SCF CONVERGED AFTER  10 CYCLES          *
               *****************************************************

Old exchange energy                            =     -2.926053243 Eh
New exchange energy                            =     -2.926052280 Eh
Exchange energy change after final integration =      0.000000963 Eh
Total energy after final integration           =    -78.425624258 Eh
Final COS-X integration done in                =     0.370 sec

----------------
TOTAL SCF ENERGY
----------------

Total Energy       :          -78.42562426 Eh           -2134.06973 eV

Components:
Nuclear Repulsion  :           33.24908082 Eh             904.75349 eV
Electronic Energy  :         -111.67470508 Eh           -3038.82322 eV
One Electron Energy:         -169.96129891 Eh           -4624.88207 eV
Two Electron Energy:           58.28659383 Eh            1586.05885 eV
Max COSX asymmetry :            0.00000119 Eh               0.00003 eV

Virial components:
Potential Energy   :         -155.89522642 Eh           -4242.12478 eV
Kinetic Energy     :           77.46960216 Eh            2108.05505 eV
Virial Ratio       :            2.01234061


DFT components:
N(Alpha)           :        7.999996911792 electrons
N(Beta)            :        7.999996911792 electrons
N(Total)           :       15.999993823584 electrons
E(X)               :       -8.732990485205 Eh       
E(C)               :       -0.500400114405 Eh       
E(XC)              :       -9.233390599610 Eh       
DFET-embed. en.    :        0.000000000000 Eh       

---------------
SCF CONVERGENCE
---------------

  Last Energy change         ...   -2.6361e-11  Tolerance :   1.0000e-08
  Last MAX-Density change    ...    4.4409e-16  Tolerance :   1.0000e-07
  Last RMS-Density change    ...    2.2319e-17  Tolerance :   5.0000e-09
  Last Orbital Gradient      ...    1.7582e-07  Tolerance :   1.0000e-05
  Last Orbital Rotation      ...    1.3596e-07  Tolerance :   1.0000e-05

             **** THE GBW FILE WAS UPDATED (r1_C2H4_opt_orca.gbw) ****
             **** DENSITY r1_C2H4_opt_orca.scfp WAS UPDATED ****
             **** ENERGY FILE WAS UPDATED (r1_C2H4_opt_orca.en.tmp) ****
             **** THE GBW FILE WAS UPDATED (r1_C2H4_opt_orca.gbw) ****
             **** DENSITY r1_C2H4_opt_orca.scfp WAS UPDATED ****
----------------
ORBITAL ENERGIES
----------------

  NO   OCC          E(Eh)            E(eV) 
   0   2.0000     -10.236250      -278.5425 
   1   2.0000     -10.235462      -278.5211 
   2   2.0000      -0.773705       -21.0536 
   3   2.0000      -0.587689       -15.9918 
   4   2.0000      -0.479169       -13.0389 
   5   2.0000      -0.432479       -11.7684 
   6   2.0000      -0.362533        -9.8650 
   7   2.0000      -0.286816        -7.8047 
   8   0.0000       0.013876         0.3776 
   9   0.0000       0.096412         2.6235 
  10   0.0000       0.114590         3.1182 
  11   0.0000       0.128271         3.4904 
  12   0.0000       0.200321         5.4510 
  13   0.0000       0.335903         9.1404 
  14   0.0000       0.408401        11.1132 
  15   0.0000       0.445541        12.1238 
  16   0.0000       0.458690        12.4816 
  17   0.0000       0.508496        13.8369 
  18   0.0000       0.565096        15.3770 
  19   0.0000       0.598108        16.2754 
  20   0.0000       0.664468        18.0811 
  21   0.0000       0.687425        18.7058 
  22   0.0000       0.695761        18.9326 
  23   0.0000       0.707785        19.2598 
  24   0.0000       0.837128        22.7794 
  25   0.0000       1.058868        28.8132 
  26   0.0000       1.181448        32.1488 
  27   0.0000       1.244036        33.8520 
  28   0.0000       1.276333        34.7308 
  29   0.0000       1.589525        43.2532 
  30   0.0000       1.634295        44.4714 
  31   0.0000       1.641365        44.6638 
  32   0.0000       1.709455        46.5166 
  33   0.0000       1.754474        47.7417 
  34   0.0000       1.770752        48.1846 
  35   0.0000       1.824811        49.6556 
  36   0.0000       1.926152        52.4133 
  37   0.0000       2.071020        56.3553 
  38   0.0000       2.169600        59.0378 
  39   0.0000       2.240640        60.9709 
  40   0.0000       2.388063        64.9825 
  41   0.0000       2.388901        65.0053 
  42   0.0000       2.490352        67.7659 
  43   0.0000       2.696123        73.3652 
  44   0.0000       2.802091        76.2488 
  45   0.0000       2.835285        77.1520 
  46   0.0000       3.066605        83.4466 
  47   0.0000       3.341979        90.9399 

                    ********************************
                    * MULLIKEN POPULATION ANALYSIS *
                    ********************************

-----------------------
MULLIKEN ATOMIC CHARGES
-----------------------
   0 C :   -0.115659
   1 C :   -0.115676
   2 H :    0.057940
   3 H :    0.057730
   4 H :    0.057939
   5 H :    0.057727
Sum of atomic charges:   -0.0000000

--------------------------------
MULLIKEN REDUCED ORBITAL CHARGES
--------------------------------
  0 C s       :     3.147208  s :     3.147208
      pz      :     0.984967  p :     2.941628
      px      :     0.984277
      py      :     0.972384
      dz2     :     0.001699  d :     0.026823
      dxz     :     0.005679
      dyz     :     0.000027
      dx2y2   :     0.007132
      dxy     :     0.012287
  1 C s       :     3.147215  s :     3.147215
      pz      :     0.984965  p :     2.941639
      px      :     0.984273
      py      :     0.972401
      dz2     :     0.001699  d :     0.026823
      dxz     :     0.005678
      dyz     :     0.000027
      dx2y2   :     0.007131
      dxy     :     0.012287
  2 H s       :     0.918086  s :     0.918086
      pz      :     0.004674  p :     0.023974
      px      :     0.007598
      py      :     0.011702
  3 H s       :     0.918294  s :     0.918294
      pz      :     0.004667  p :     0.023976
      px      :     0.006451
      py      :     0.012859
  4 H s       :     0.918088  s :     0.918088
      pz      :     0.004674  p :     0.023974
      px      :     0.007599
      py      :     0.011701
  5 H s       :     0.918297  s :     0.918297
      pz      :     0.004667  p :     0.023976
      px      :     0.006451
      py      :     0.012859


                     *******************************
                     * LOEWDIN POPULATION ANALYSIS *
                     *******************************

----------------------
LOEWDIN ATOMIC CHARGES
----------------------
   0 C :   -0.060554
   1 C :   -0.060553
   2 H :    0.030299
   3 H :    0.030257
   4 H :    0.030295
   5 H :    0.030255

-------------------------------
LOEWDIN REDUCED ORBITAL CHARGES
-------------------------------
  0 C s       :     2.894843  s :     2.894843
      pz      :     0.961467  p :     3.096273
      px      :     1.085819
      py      :     1.048987
      dz2     :     0.004504  d :     0.069438
      dxz     :     0.010677
      dyz     :     0.000056
      dx2y2   :     0.020897
      dxy     :     0.033303
  1 C s       :     2.894844  s :     2.894844
      pz      :     0.961465  p :     3.096271
      px      :     1.085814
      py      :     1.048992
      dz2     :     0.004504  d :     0.069438
      dxz     :     0.010677
      dyz     :     0.000056
      dx2y2   :     0.020895
      dxy     :     0.033305
  2 H s       :     0.902055  s :     0.902055
      pz      :     0.013976  p :     0.067646
      px      :     0.020328
      py      :     0.033342
  3 H s       :     0.902094  s :     0.902094
      pz      :     0.013957  p :     0.067649
      px      :     0.017108
      py      :     0.036585
  4 H s       :     0.902059  s :     0.902059
      pz      :     0.013975  p :     0.067646
      px      :     0.020331
      py      :     0.033339
  5 H s       :     0.902096  s :     0.902096
      pz      :     0.013957  p :     0.067648
      px      :     0.017107
      py      :     0.036585


                      *****************************
                      * MAYER POPULATION ANALYSIS *
                      *****************************

  NA   - Mulliken gross atomic population
  ZA   - Total nuclear charge
  QA   - Mulliken gross atomic charge
  VA   - Mayer's total valence
  BVA  - Mayer's bonded valence
  FA   - Mayer's free valence

  ATOM       NA         ZA         QA         VA         BVA        FA
  0 C      6.1157     6.0000    -0.1157     4.0024     4.0024     0.0000
  1 C      6.1157     6.0000    -0.1157     4.0024     4.0024     0.0000
  2 H      0.9421     1.0000     0.0579     0.9744     0.9744    -0.0000
  3 H      0.9423     1.0000     0.0577     0.9745     0.9745    -0.0000
  4 H      0.9421     1.0000     0.0579     0.9744     0.9744    -0.0000
  5 H      0.9423     1.0000     0.0577     0.9745     0.9745    -0.0000

  Mayer bond orders larger than 0.100000
B(  0-C ,  1-C ) :   2.0648 B(  0-C ,  2-H ) :   0.9635 B(  0-C ,  3-H ) :   0.9635 
B(  1-C ,  4-H ) :   0.9635 B(  1-C ,  5-H ) :   0.9635 


------------------
HIRSHFELD ANALYSIS
------------------

Total integrated alpha density =      7.999996912
Total integrated beta density  =      7.999996912

  ATOM     CHARGE      SPIN    
   0 C   -0.070619    0.000000
   1 C   -0.070619    0.000000
   2 H    0.035315    0.000000
   3 H    0.035310    0.000000
   4 H    0.035314    0.000000
   5 H    0.035306    0.000000

  TOTAL   0.000006    0.000000

-------
TIMINGS
-------

Total SCF time: 0 days 0 hours 0 min 3 sec 

Total time                  ....       3.402 sec
Sum of individual times     ....       3.343 sec  ( 98.3%)

Fock matrix formation       ....       3.034 sec  ( 89.2%)
  Split-RI-J                ....       0.235 sec  (  7.7% of F)
  Chain of spheres X        ....       1.896 sec  ( 62.5% of F)
  XC integration            ....       0.905 sec  ( 29.8% of F)
    Basis function eval.    ....       0.329 sec  ( 36.4% of XC)
    Density eval.           ....       0.193 sec  ( 21.4% of XC)
    XC-Functional eval.     ....       0.151 sec  ( 16.7% of XC)
    XC-Potential eval.      ....       0.178 sec  ( 19.6% of XC)
Diagonalization             ....       0.002 sec  (  0.1%)
Density matrix formation    ....       0.000 sec  (  0.0%)
Population analysis         ....       0.038 sec  (  1.1%)
Initial guess               ....       0.029 sec  (  0.8%)
Orbital Transformation      ....       0.000 sec  (  0.0%)
Orbital Orthonormalization  ....       0.000 sec  (  0.0%)
DIIS solution               ....       0.001 sec  (  0.0%)
SOSCF solution              ....       0.001 sec  (  0.0%)
Grid generation             ....       0.238 sec  (  7.0%)

Maximum memory used throughout the entire SCF-calculation: 45.6 MB


-------------------------------------------------------------------------------
                          DFT DISPERSION CORRECTION                            
                                                                               
                              DFTD3 V3.1  Rev 1                                
                          USING Becke-Johnson damping                          
-------------------------------------------------------------------------------
The PBE0 functional is recognized
Active option DFTDOPT                   ...         4   

molecular C6(AA) [au] = 294.552639 


            DFT-D V3
 parameters
 s6 scaling factor         :     1.0000 
 a1 scaling factor         :     0.4145 
 s8 scaling factor         :     1.2177 
 a2 scaling factor         :     4.8593 
 ad hoc parameters k1-k3   :    16.0000     1.3333    -4.0000 

 Edisp/kcal,au: -1.191838648993  -0.001899315582 
 E6   /kcal   :  -0.781212244 
 E8   /kcal   :  -0.410626405 
 % E8         :  34.453187542 

-------------------------   ----------------
Dispersion correction           -0.001899316
-------------------------   ----------------


-------------------------   --------------------
FINAL SINGLE POINT ENERGY       -78.427523573532
-------------------------   --------------------

------------------------------------------------------------------------------
                         ORCA SCF GRADIENT CALCULATION
------------------------------------------------------------------------------

 ... reading COSX grid (gridx3)
Gradient of the Kohn-Sham DFT energy:
Kohn-Sham wavefunction type      ... RKS
Hartree-Fock exchange scaling    ...    0.250
Number of operators              ...    1
Number of atoms                  ...    6
Basis set dimensions             ...   48
Integral neglect threshold       ... 2.5e-11
Integral primitive cutoff        ... 2.5e-12
SHARK Integral package           ... ON

Nuc. rep. gradient       (SHARK) ... done (  0.0 sec)
HCore & Overlap gradient (SHARK) ... done (  0.0 sec)
RI-J gradient            (SHARK) ... done (  0.1 sec)
COSX-gradient                    ... done (  0.5 sec)
Exchange-correlation gradient    ... done
Dispersion correction            ... done

------------------
CARTESIAN GRADIENT
------------------

   1   C   :   -0.001239342   -0.000068749   -0.000017605
   2   C   :    0.001251213    0.000072100    0.000017688
   3   H   :    0.000376458    0.000129143    0.000009422
   4   H   :    0.000401713   -0.000097335    0.000014807
   5   H   :   -0.000384238   -0.000133858   -0.000010419
   6   H   :   -0.000405771    0.000098707   -0.000013888

Difference to translation invariance:
           :    0.0000000340    0.0000000082    0.0000000060

Difference to rotation invariance:
           :    0.0000016966   -0.0000614094   -0.0000869922

Norm of the cartesian gradient     ...    0.0019446997
RMS gradient                       ...    0.0004583701
MAX gradient                       ...    0.0012512132

-------
TIMINGS
-------

Total SCF gradient time            ...        1.117 sec

One electron gradient       ....       0.008 sec  (  0.7%)
RI-J Coulomb gradient       ....       0.075 sec  (  6.8%)
COSX gradient               ....       0.469 sec  ( 42.0%)
XC gradient                 ....       0.431 sec  ( 38.6%)

Maximum memory used throughout the entire SCFGRAD-calculation: 35.0 MB
------------------------------------------------------------------------------
                         ORCA GEOMETRY RELAXATION STEP
------------------------------------------------------------------------------

Reading the OPT-File                    .... done
Getting information on internals        .... done
Copying old internal coords+grads       .... done
Making the new internal coordinates     .... (new redundants).... done
Validating the new internal coordinates .... (new redundants).... done
Calculating the B-matrix                .... done
Calculating the G,G- and P matrices     .... done
Transforming gradient to internals      .... done
Projecting the internal gradient        .... done
Number of atoms                         ....   6
Number of internal coordinates          ....  15
Current Energy                          ....   -78.427523574 Eh
Current gradient norm                   ....     0.001944700 Eh/bohr
Maximum allowed component of the step   ....  0.300
Current trust radius                    ....  0.300
Evaluating the initial hessian          ....  (Almloef) done
Projecting the Hessian                  .... done
Forming the augmented Hessian           .... done
Diagonalizing the augmented Hessian     .... done
Last element of RFO vector              ....  0.999995161
Lowest eigenvalues of augmented Hessian:
 -0.000003225  0.043619087  0.043619091  0.043619091  0.314834956
Length of the computed step             ....  0.003110999
The final length of the internal step   ....  0.003110999
Converting the step to cartesian space:
 Initial RMS(Int)=    0.0008032565
Transforming coordinates:
 Iter   0:  RMS(Cart)=    0.0007332568 RMS(Int)=    0.0008032881
 Iter   1:  RMS(Cart)=    0.0000003846 RMS(Int)=    0.0000004146
 Iter   2:  RMS(Cart)=    0.0000000003 RMS(Int)=    0.0000000003
done
Storing new coordinates                 .... done

                                .--------------------.
          ----------------------|Geometry convergence|-------------------------
          Item                value                   Tolerance       Converged
          ---------------------------------------------------------------------
          RMS gradient        0.0002766683            0.0001000000      NO
          MAX gradient        0.0005482153            0.0003000000      NO
          RMS step            0.0008032565            0.0020000000      YES
          MAX step            0.0017412631            0.0040000000      YES
          ........................................................
          Max(Bonds)      0.0003      Max(Angles)    0.10
          Max(Dihed)        0.00      Max(Improp)    0.00
          ---------------------------------------------------------------------

The optimization has not yet converged - more geometry cycles are needed


    ---------------------------------------------------------------------------
                         Redundant Internal Coordinates
                            (Angstroem and degrees)

        Definition                    Value    dE/dq     Step     New-Value
    ----------------------------------------------------------------------------
     1. B(C   1,C   0)                1.3299 -0.000462  0.0003    1.3302   
     2. B(H   2,C   0)                1.0946  0.000109 -0.0002    1.0944   
     3. B(H   3,C   0)                1.0945  0.000108 -0.0002    1.0944   
     4. B(H   4,C   1)                1.0946  0.000110 -0.0002    1.0944   
     5. B(H   5,C   1)                1.0945  0.000109 -0.0002    1.0944   
     6. A(H   2,C   0,H   3)          116.33 -0.000539    0.10    116.42   
     7. A(C   1,C   0,H   2)          121.83  0.000265   -0.05    121.78   
     8. A(C   1,C   0,H   3)          121.84  0.000275   -0.05    121.79   
     9. A(H   4,C   1,H   5)          116.32 -0.000548    0.10    116.42   
    10. A(C   0,C   1,H   5)          121.84  0.000274   -0.05    121.79   
    11. A(C   0,C   1,H   4)          121.84  0.000274   -0.05    121.79   
    12. D(H   4,C   1,C   0,H   3)      0.02  0.000001   -0.00      0.02   
    13. D(H   5,C   1,C   0,H   2)     -0.01 -0.000000    0.00     -0.01   
    14. D(H   5,C   1,C   0,H   3)   -180.00  0.000000   -0.00   -180.00   
    15. D(H   4,C   1,C   0,H   2)   -180.00  0.000000   -0.00   -180.00   
    ----------------------------------------------------------------------------

         *************************************************************
         *                GEOMETRY OPTIMIZATION CYCLE   2            *
         *************************************************************
---------------------------------
CARTESIAN COORDINATES (ANGSTROEM)
---------------------------------
  C      0.663890    0.039184    0.010409
  C     -0.663871   -0.039169   -0.010375
  H      1.293689   -0.855322    0.040547
  H      1.184927    1.001479   -0.001468
  H     -1.293729    0.855297   -0.040517
  H     -1.184906   -1.001468    0.001504

----------------------------
CARTESIAN COORDINATES (A.U.)
----------------------------
  NO LB      ZA    FRAG     MASS         X           Y           Z
   0 C     6.0000    0    12.011    1.254569    0.074047    0.019669
   1 C     6.0000    0    12.011   -1.254534   -0.074019   -0.019606
   2 H     1.0000    0     1.008    2.444718   -1.616325    0.076623
   3 H     1.0000    0     1.008    2.239188    1.892522   -0.002774
   4 H     1.0000    0     1.008   -2.444794    1.616276   -0.076566
   5 H     1.0000    0     1.008   -2.239147   -1.892501    0.002842

--------------------------------
INTERNAL COORDINATES (ANGSTROEM)
--------------------------------
 C      0   0   0     0.000000000000     0.00000000     0.00000000
 C      1   0   0     1.330232436190     0.00000000     0.00000000
 H      1   2   0     1.094393480361   121.78246134     0.00000000
 H      1   2   3     1.094364793985   121.79276282   180.01511255
 H      2   1   3     1.094394477212   121.78621246   180.00017486
 H      2   1   3     1.094366754030   121.79255788     0.00000000

---------------------------
INTERNAL COORDINATES (A.U.)
---------------------------
 C      0   0   0     0.000000000000     0.00000000     0.00000000
 C      1   0   0     2.513774998859     0.00000000     0.00000000
 H      1   2   0     2.068103960631   121.78246134     0.00000000
 H      1   2   3     2.068049751236   121.79276282   180.01511255
 H      2   1   3     2.068105844407   121.78621246   180.00017486
 H      2   1   3     2.068053455184   121.79255788     0.00000000

------------------------------------------------------------------------------
                   ___                                                        
                  /   \      - P O W E R E D   B Y -                         
                 /     \                                                     
                 |  |  |   _    _      __       _____    __    __             
                 |  |  |  | |  | |    /  \     |  _  \  |  |  /  |          
                  \  \/   | |  | |   /    \    | | | |  |  | /  /          
                 / \  \   | |__| |  /  /\  \   | |_| |  |  |/  /          
                |  |  |   |  __  | /  /__\  \  |    /   |      \           
                |  |  |   | |  | | |   __   |  |    \   |  |\   \          
                \     /   | |  | | |  |  |  |  | |\  \  |  | \   \       
                 \___/    |_|  |_| |__|  |__|  |_| \__\ |__|  \__/        
                                                                              
                      - O R C A' S   B I G   F R I E N D -                    
                                      &                                       
                       - I N T E G R A L  F E E D E R -                       
                                                                              
 v1 FN, 2020, v2 2021                                                         
------------------------------------------------------------------------------


Reading SHARK input file r1_C2H4_opt_orca.SHARKINP.tmp ... ok
----------------------
SHARK INTEGRAL PACKAGE
----------------------

Number of atoms                             ...      6
Number of basis functions                   ...     48
Number of shells                            ...     24
Maximum angular momentum                    ...      2
Integral batch strategy                     ... SHARK/LIBINT Hybrid
RI-J (if used) integral strategy            ... SPLIT-RIJ (Revised 2003 algorithm where possible)
Printlevel                                  ...      1
Contraction scheme used                     ... SEGMENTED contraction
Coulomb Range Separation                    ... NOT USED
Exchange Range Separation                   ... NOT USED
Finite Nucleus Model                        ... NOT USED
Auxiliary Coulomb fitting basis             ... AVAILABLE
   # of basis functions in Aux-J            ...    142
   # of shells in Aux-J                     ...     50
   Maximum angular momentum in Aux-J        ...      4
Auxiliary J/K fitting basis                 ... NOT available
Auxiliary Correlation fitting basis         ... NOT available
Auxiliary 'external' fitting basis          ... NOT available
Integral threshold                          ...     2.500000e-11
Primitive cut-off                           ...     2.500000e-12
Primitive pair pre-selection threshold      ...     2.500000e-12

Calculating pre-screening integrals         ... done (  0.0 sec) Dimension = 24
Organizing shell pair data                  ... done (  0.0 sec)
Shell pair information
Total number of shell pairs                 ...       300
Shell pairs after pre-screening             ...       300
Total number of primitive shell pairs       ...      1028
Primitive shell pairs kept                  ...       935
          la=0 lb=0:    105 shell pairs
          la=1 lb=0:    112 shell pairs
          la=1 lb=1:     36 shell pairs
          la=2 lb=0:     28 shell pairs
          la=2 lb=1:     16 shell pairs
          la=2 lb=2:      3 shell pairs

Calculating one electron integrals          ... done (  0.0 sec)
Calculating RI/J V-Matrix + Cholesky decomp.... done (  0.0 sec)
Calculating Nuclear repulsion               ... done (  0.0 sec) ENN=     33.248553105031 Eh

SHARK setup successfully completed in   0.1 seconds

Maximum memory used throughout the entire GTOINT-calculation: 9.0 MB

Diagonalization of the overlap matrix:
Smallest eigenvalue                        ... 3.937e-03
Time for diagonalization                   ...    0.001 sec
Threshold for overlap eigenvalues          ... 1.000e-08
Number of eigenvalues below threshold      ... 0
Time for construction of square roots      ...    0.000 sec
Total time needed                          ...    0.001 sec

-------------------
DFT GRID GENERATION
-------------------

General Integration Accuracy     IntAcc      ... 4.388
Radial Grid Type                 RadialGrid  ... OptM3 with GC (2021)
Angular Grid (max. ang.)         AngularGrid ... 4 (Lebedev-302)
Angular grid pruning method      GridPruning ... 4 (adaptive)
Weight generation scheme         WeightScheme... Becke
Basis function cutoff            BFCut       ... 1.0000e-11
Integration weight cutoff        WCut        ... 1.0000e-14
Angular grids for H and He will be reduced by one unit
Partially contracted basis set               ... off
Rotationally invariant grid construction     ... off

Total number of grid points                  ...    25300
Total number of batches                      ...      400
Average number of points per batch           ...       63
Average number of grid points per atom       ...     4217
Time for grid setup =    0.117 sec

--------------------
COSX GRID GENERATION
--------------------

GRIDX 1
-------
General Integration Accuracy     IntAcc      ... 3.816
Radial Grid Type                 RadialGrid  ... OptM3 with GC (2021)
Angular Grid (max. ang.)         AngularGrid ... 1 (Lebedev-50)
Angular grid pruning method      GridPruning ... 4 (adaptive)
Weight generation scheme         WeightScheme... Becke
Basis function cutoff            BFCut       ... 1.0000e-11
Integration weight cutoff        WCut        ... 1.0000e-14
Angular grids for H and He will be reduced by one unit
Partially contracted basis set               ... on
Rotationally invariant grid construction     ... off

Total number of grid points                  ...     3282
Total number of batches                      ...       54
Average number of points per batch           ...       60
Average number of grid points per atom       ...      547
UseSFitting                                  ... on

GRIDX 2
-------
General Integration Accuracy     IntAcc      ... 4.020
Radial Grid Type                 RadialGrid  ... OptM3 with GC (2021)
Angular Grid (max. ang.)         AngularGrid ... 2 (Lebedev-110)
Angular grid pruning method      GridPruning ... 4 (adaptive)
Weight generation scheme         WeightScheme... Becke
Basis function cutoff            BFCut       ... 1.0000e-11
Integration weight cutoff        WCut        ... 1.0000e-14
Angular grids for H and He will be reduced by one unit
Partially contracted basis set               ... on
Rotationally invariant grid construction     ... off

Total number of grid points                  ...     6908
Total number of batches                      ...      110
Average number of points per batch           ...       62
Average number of grid points per atom       ...     1151
UseSFitting                                  ... on

GRIDX 3
-------
General Integration Accuracy     IntAcc      ... 4.338
Radial Grid Type                 RadialGrid  ... OptM3 with GC (2021)
Angular Grid (max. ang.)         AngularGrid ... 3 (Lebedev-194)
Angular grid pruning method      GridPruning ... 4 (adaptive)
Weight generation scheme         WeightScheme... Becke
Basis function cutoff            BFCut       ... 1.0000e-11
Integration weight cutoff        WCut        ... 1.0000e-14
Angular grids for H and He will be reduced by one unit
Partially contracted basis set               ... on
Rotationally invariant grid construction     ... off

Total number of grid points                  ...    15210
Total number of batches                      ...      240
Average number of points per batch           ...       63
Average number of grid points per atom       ...     2535
UseSFitting                                  ... on

Time for X-Grid setup             =    0.101 sec

--------------
SCF ITERATIONS
--------------
ITER       Energy         Delta-E        Max-DP      RMS-DP      [F,P]     Damp
               ***  Starting incremental Fock matrix formation  ***
                      *** Initiating the SOSCF procedure ***
                      *** Re-Reading the Fockian *** 
                      *** Removing any level shift *** 
ITER      Energy       Delta-E        Grad      Rot      Max-DP    RMS-DP
  0    -78.42562781 -78.4256278059  0.000118  0.000118  0.000135  0.000013
               *** Restarting incremental Fock matrix formation ***
  1    -78.42562794  -0.0000001338  0.000028  0.000050  0.000059  0.000004
  2    -78.42562795  -0.0000000078  0.000012  0.000016  0.000018  0.000001
  3    -78.42562795  -0.0000000013  0.000008  0.000006  0.000008  0.000001
                 **** Energy Check signals convergence ****
              ***Rediagonalizing the Fockian in SOSCF/NRSCF***

               *****************************************************
               *                     SUCCESS                       *
               *           SCF CONVERGED AFTER   4 CYCLES          *
               *****************************************************

Old exchange energy                            =     -2.926067273 Eh
New exchange energy                            =     -2.926066086 Eh
Exchange energy change after final integration =      0.000001187 Eh
Total energy after final integration           =    -78.425626762 Eh
Final COS-X integration done in                =     0.363 sec
Total Energy       :          -78.42562676 Eh           -2134.06980 eV
  Last Energy change         ...    1.2847e-11  Tolerance :   1.0000e-08
  Last MAX-Density change    ...    6.6613e-16  Tolerance :   1.0000e-07
             **** THE GBW FILE WAS UPDATED (r1_C2H4_opt_orca.gbw) ****
             **** DENSITY r1_C2H4_opt_orca.scfp WAS UPDATED ****
             **** ENERGY FILE WAS UPDATED (r1_C2H4_opt_orca.en.tmp) ****
             **** THE GBW FILE WAS UPDATED (r1_C2H4_opt_orca.gbw) ****
             **** DENSITY r1_C2H4_opt_orca.scfp WAS UPDATED ****
Total SCF time: 0 days 0 hours 0 min 2 sec 

Maximum memory used throughout the entire SCF-calculation: 45.6 MB


-------------------------------------------------------------------------------
                          DFT DISPERSION CORRECTION                            
                                                                               
                              DFTD3 V3.1  Rev 1                                
                          USING Becke-Johnson damping                          
-------------------------------------------------------------------------------
-------------------------   ----------------
Dispersion correction           -0.001899429
-------------------------   ----------------


-------------------------   --------------------
FINAL SINGLE POINT ENERGY       -78.427526190587
-------------------------   --------------------

------------------------------------------------------------------------------
                         ORCA SCF GRADIENT CALCULATION
------------------------------------------------------------------------------

 ... reading COSX grid (gridx3)
Gradient of the Kohn-Sham DFT energy:
Kohn-Sham wavefunction type      ... RKS
Hartree-Fock exchange scaling    ...    0.250
Number of operators              ...    1
Number of atoms                  ...    6
Basis set dimensions             ...   48
Integral neglect threshold       ... 2.5e-11
Integral primitive cutoff        ... 2.5e-12
SHARK Integral package           ... ON

Nuc. rep. gradient       (SHARK) ... done (  0.0 sec)
HCore & Overlap gradient (SHARK) ... done (  0.0 sec)
RI-J gradient            (SHARK) ... done (  0.1 sec)
COSX-gradient                    ... done (  0.5 sec)
Exchange-correlation gradient    ... done
Dispersion correction            ... done

------------------
CARTESIAN GRADIENT
------------------

   1   C   :   -0.000643442   -0.000036814   -0.000007407
   2   C   :    0.000651247    0.000039296    0.000007499
   3   H   :    0.000220518    0.000134624    0.000006793
   4   H   :    0.000246309   -0.000119940    0.000012032
   5   H   :   -0.000225702   -0.000138117   -0.000007038
   6   H   :   -0.000248905    0.000120966   -0.000011866

Difference to translation invariance:
           :    0.0000000249    0.0000000145    0.0000000128

Difference to rotation invariance:
           :    0.0000016973   -0.0000612623   -0.0000882523

Norm of the cartesian gradient     ...    0.0010629868
RMS gradient                       ...    0.0002505484
MAX gradient                       ...    0.0006512467

-------
TIMINGS
-------

Total SCF gradient time            ...        1.097 sec

One electron gradient       ....       0.010 sec  (  0.9%)
RI-J Coulomb gradient       ....       0.077 sec  (  7.0%)
COSX gradient               ....       0.451 sec  ( 41.1%)
XC gradient                 ....       0.410 sec  ( 37.4%)

Maximum memory used throughout the entire SCFGRAD-calculation: 35.0 MB
------------------------------------------------------------------------------
                         ORCA GEOMETRY RELAXATION STEP
------------------------------------------------------------------------------

Reading the OPT-File                    .... done
Getting information on internals        .... done
Copying old internal coords+grads       .... done
Making the new internal coordinates     .... (new redundants).... done
Validating the new internal coordinates .... (new redundants).... done
Calculating the B-matrix                .... done
Calculating the G,G- and P matrices     .... done
Transforming gradient to internals      .... done
Projecting the internal gradient        .... done
Number of atoms                         ....   6
Number of internal coordinates          ....  15
Current Energy                          ....   -78.427526191 Eh
Current gradient norm                   ....     0.001062987 Eh/bohr
Maximum allowed component of the step   ....  0.300
Current trust radius                    ....  0.300
Updating the Hessian (BFGS)             .... done
Forming the augmented Hessian           .... done
Diagonalizing the augmented Hessian     .... done
Last element of RFO vector              ....  0.999982215
Lowest eigenvalues of augmented Hessian:
 -0.000003920  0.043619078  0.043619091  0.043619128  0.109776577
Length of the computed step             ....  0.005964216
The final length of the internal step   ....  0.005964216
Converting the step to cartesian space:
 Initial RMS(Int)=    0.0015399540
Transforming coordinates:
 Iter   0:  RMS(Cart)=    0.0015298772 RMS(Int)=    2.2942925972
 Iter   1:  RMS(Cart)=    0.0000014271 RMS(Int)=    0.0000015618
 Iter   2:  RMS(Cart)=    0.0000000024 RMS(Int)=    0.0000000022
done
Storing new coordinates                 .... done

                                .--------------------.
          ----------------------|Geometry convergence|-------------------------
          Item                value                   Tolerance       Converged
          ---------------------------------------------------------------------
          Energy change      -0.0000026171            0.0000050000      YES
          RMS gradient        0.0001717243            0.0001000000      NO
          MAX gradient        0.0003727843            0.0003000000      NO
          RMS step            0.0015399540            0.0020000000      YES
          MAX step            0.0034440047            0.0040000000      YES
          ........................................................
          Max(Bonds)      0.0004      Max(Angles)    0.20
          Max(Dihed)        0.00      Max(Improp)    0.00
          ---------------------------------------------------------------------

The optimization has not yet converged - more geometry cycles are needed


    ---------------------------------------------------------------------------
                         Redundant Internal Coordinates
                            (Angstroem and degrees)

        Definition                    Value    dE/dq     Step     New-Value
    ----------------------------------------------------------------------------
     1. B(C   1,C   0)                1.3302 -0.000177  0.0004    1.3306   
     2. B(H   2,C   0)                1.0944  0.000015 -0.0001    1.0943   
     3. B(H   3,C   0)                1.0944  0.000014 -0.0001    1.0943   
     4. B(H   4,C   1)                1.0944  0.000015 -0.0001    1.0943   
     5. B(H   5,C   1)                1.0944  0.000015 -0.0001    1.0943   
     6. A(H   2,C   0,H   3)          116.42 -0.000367    0.19    116.62   
     7. A(C   1,C   0,H   2)          121.78  0.000180   -0.10    121.69   
     8. A(C   1,C   0,H   3)          121.79  0.000186   -0.10    121.69   
     9. A(H   4,C   1,H   5)          116.42 -0.000373    0.20    116.62   
    10. A(C   0,C   1,H   5)          121.79  0.000186   -0.10    121.69   
    11. A(C   0,C   1,H   4)          121.79  0.000187   -0.10    121.69   
    12. D(H   4,C   1,C   0,H   3)      0.02  0.000000   -0.00      0.01   
    13. D(H   5,C   1,C   0,H   2)     -0.01 -0.000000    0.00     -0.01   
    14. D(H   5,C   1,C   0,H   3)   -180.00  0.000000   -0.00   -180.00   
    15. D(H   4,C   1,C   0,H   2)   -180.00  0.000000   -0.00   -180.00   
    ----------------------------------------------------------------------------

         *************************************************************
         *                GEOMETRY OPTIMIZATION CYCLE   3            *
         *************************************************************
---------------------------------
CARTESIAN COORDINATES (ANGSTROEM)
---------------------------------
  C      0.664065    0.039184    0.010413
  C     -0.664064   -0.039182   -0.010380
  H      1.292319   -0.856310    0.040548
  H      1.183417    1.002300   -0.001515
  H     -1.292325    0.856308   -0.040511
  H     -1.183412   -1.002300    0.001544

----------------------------
CARTESIAN COORDINATES (A.U.)
----------------------------
  NO LB      ZA    FRAG     MASS         X           Y           Z
   0 C     6.0000    0    12.011    1.254901    0.074047    0.019678
   1 C     6.0000    0    12.011   -1.254898   -0.074042   -0.019616
   2 H     1.0000    0     1.008    2.442129   -1.618192    0.076625
   3 H     1.0000    0     1.008    2.236334    1.894073   -0.002863
   4 H     1.0000    0     1.008   -2.442141    1.618188   -0.076554
   5 H     1.0000    0     1.008   -2.236325   -1.894073    0.002919

--------------------------------
INTERNAL COORDINATES (ANGSTROEM)
--------------------------------
 C      0   0   0     0.000000000000     0.00000000     0.00000000
 C      1   0   0     1.330600786912     0.00000000     0.00000000
 H      1   2   0     1.094313331841   121.68689831     0.00000000
 H      1   2   3     1.094285976077   121.69429519   180.01458069
 H      2   1   3     1.094313571398   121.68736473   179.99972488
 H      2   1   3     1.094286397337   121.69407877     0.00000000

---------------------------
INTERNAL COORDINATES (A.U.)
---------------------------
 C      0   0   0     0.000000000000     0.00000000     0.00000000
 C      1   0   0     2.514471080844     0.00000000     0.00000000
 H      1   2   0     2.067952501879   121.68689831     0.00000000
 H      1   2   3     2.067900806976   121.69429519   180.01458069
 H      2   1   3     2.067952954575   121.68736473   179.99972488
 H      2   1   3     2.067901603042   121.69407877     0.00000000

------------------------------------------------------------------------------
                   ___                                                        
                  /   \      - P O W E R E D   B Y -                         
                 /     \                                                     
                 |  |  |   _    _      __       _____    __    __             
                 |  |  |  | |  | |    /  \     |  _  \  |  |  /  |          
                  \  \/   | |  | |   /    \    | | | |  |  | /  /          
                 / \  \   | |__| |  /  /\  \   | |_| |  |  |/  /          
                |  |  |   |  __  | /  /__\  \  |    /   |      \           
                |  |  |   | |  | | |   __   |  |    \   |  |\   \          
                \     /   | |  | | |  |  |  |  | |\  \  |  | \   \       
                 \___/    |_|  |_| |__|  |__|  |_| \__\ |__|  \__/        
                                                                              
                      - O R C A' S   B I G   F R I E N D -                    
                                      &                                       
                       - I N T E G R A L  F E E D E R -                       
                                                                              
 v1 FN, 2020, v2 2021                                                         
------------------------------------------------------------------------------


Reading SHARK input file r1_C2H4_opt_orca.SHARKINP.tmp ... ok
----------------------
SHARK INTEGRAL PACKAGE
----------------------

Number of atoms                             ...      6
Number of basis functions                   ...     48
Number of shells                            ...     24
Maximum angular momentum                    ...      2
Integral batch strategy                     ... SHARK/LIBINT Hybrid
RI-J (if used) integral strategy            ... SPLIT-RIJ (Revised 2003 algorithm where possible)
Printlevel                                  ...      1
Contraction scheme used                     ... SEGMENTED contraction
Coulomb Range Separation                    ... NOT USED
Exchange Range Separation                   ... NOT USED
Finite Nucleus Model                        ... NOT USED
Auxiliary Coulomb fitting basis             ... AVAILABLE
   # of basis functions in Aux-J            ...    142
   # of shells in Aux-J                     ...     50
   Maximum angular momentum in Aux-J        ...      4
Auxiliary J/K fitting basis                 ... NOT available
Auxiliary Correlation fitting basis         ... NOT available
Auxiliary 'external' fitting basis          ... NOT available
Integral threshold                          ...     2.500000e-11
Primitive cut-off                           ...     2.500000e-12
Primitive pair pre-selection threshold      ...     2.500000e-12

Calculating pre-screening integrals         ... done (  0.0 sec) Dimension = 24
Organizing shell pair data                  ... done (  0.0 sec)
Shell pair information
Total number of shell pairs                 ...       300
Shell pairs after pre-screening             ...       300
Total number of primitive shell pairs       ...      1028
Primitive shell pairs kept                  ...       935
          la=0 lb=0:    105 shell pairs
          la=1 lb=0:    112 shell pairs
          la=1 lb=1:     36 shell pairs
          la=2 lb=0:     28 shell pairs
          la=2 lb=1:     16 shell pairs
          la=2 lb=2:      3 shell pairs

Calculating one electron integrals          ... done (  0.0 sec)
Calculating RI/J V-Matrix + Cholesky decomp.... done (  0.0 sec)
Calculating Nuclear repulsion               ... done (  0.0 sec) ENN=     33.247580246074 Eh

SHARK setup successfully completed in   0.1 seconds

Maximum memory used throughout the entire GTOINT-calculation: 9.0 MB

Diagonalization of the overlap matrix:
Smallest eigenvalue                        ... 3.939e-03
Time for diagonalization                   ...    0.001 sec
Threshold for overlap eigenvalues          ... 1.000e-08
Number of eigenvalues below threshold      ... 0
Time for construction of square roots      ...    0.000 sec
Total time needed                          ...    0.001 sec

-------------------
DFT GRID GENERATION
-------------------

General Integration Accuracy     IntAcc      ... 4.388
Radial Grid Type                 RadialGrid  ... OptM3 with GC (2021)
Angular Grid (max. ang.)         AngularGrid ... 4 (Lebedev-302)
Angular grid pruning method      GridPruning ... 4 (adaptive)
Weight generation scheme         WeightScheme... Becke
Basis function cutoff            BFCut       ... 1.0000e-11
Integration weight cutoff        WCut        ... 1.0000e-14
Angular grids for H and He will be reduced by one unit
Partially contracted basis set               ... off
Rotationally invariant grid construction     ... off

Total number of grid points                  ...    25300
Total number of batches                      ...      400
Average number of points per batch           ...       63
Average number of grid points per atom       ...     4217
Time for grid setup =    0.117 sec

--------------------
COSX GRID GENERATION
--------------------

GRIDX 1
-------
General Integration Accuracy     IntAcc      ... 3.816
Radial Grid Type                 RadialGrid  ... OptM3 with GC (2021)
Angular Grid (max. ang.)         AngularGrid ... 1 (Lebedev-50)
Angular grid pruning method      GridPruning ... 4 (adaptive)
Weight generation scheme         WeightScheme... Becke
Basis function cutoff            BFCut       ... 1.0000e-11
Integration weight cutoff        WCut        ... 1.0000e-14
Angular grids for H and He will be reduced by one unit
Partially contracted basis set               ... on
Rotationally invariant grid construction     ... off

Total number of grid points                  ...     3282
Total number of batches                      ...       54
Average number of points per batch           ...       60
Average number of grid points per atom       ...      547
UseSFitting                                  ... on

GRIDX 2
-------
General Integration Accuracy     IntAcc      ... 4.020
Radial Grid Type                 RadialGrid  ... OptM3 with GC (2021)
Angular Grid (max. ang.)         AngularGrid ... 2 (Lebedev-110)
Angular grid pruning method      GridPruning ... 4 (adaptive)
Weight generation scheme         WeightScheme... Becke
Basis function cutoff            BFCut       ... 1.0000e-11
Integration weight cutoff        WCut        ... 1.0000e-14
Angular grids for H and He will be reduced by one unit
Partially contracted basis set               ... on
Rotationally invariant grid construction     ... off

Total number of grid points                  ...     6908
Total number of batches                      ...      110
Average number of points per batch           ...       62
Average number of grid points per atom       ...     1151
UseSFitting                                  ... on

GRIDX 3
-------
General Integration Accuracy     IntAcc      ... 4.338
Radial Grid Type                 RadialGrid  ... OptM3 with GC (2021)
Angular Grid (max. ang.)         AngularGrid ... 3 (Lebedev-194)
Angular grid pruning method      GridPruning ... 4 (adaptive)
Weight generation scheme         WeightScheme... Becke
Basis function cutoff            BFCut       ... 1.0000e-11
Integration weight cutoff        WCut        ... 1.0000e-14
Angular grids for H and He will be reduced by one unit
Partially contracted basis set               ... on
Rotationally invariant grid construction     ... off

Total number of grid points                  ...    15210
[...]


Diagonalization of the overlap matrix:
Smallest eigenvalue                        ... 3.939e-03
Time for diagonalization                   ...    0.001 sec
Threshold for overlap eigenvalues          ... 1.000e-08
Number of eigenvalues below threshold      ... 0
Time for construction of square roots      ...    0.000 sec
Total time needed                          ...    0.001 sec

---------------------
INITIAL GUESS: MOREAD
---------------------
Guess MOs are being read from file: r1_C2H4_opt_orca.gbw
Input Geometry matches current geometry (good)
Input basis set matches current basis set (good)
MOs were renormalized
MOs were reorthogonalized (Cholesky)
                      ------------------
                      INITIAL GUESS DONE (   0.0 sec)
                      ------------------
-------------------
DFT GRID GENERATION
-------------------

General Integration Accuracy     IntAcc      ... 4.388
Radial Grid Type                 RadialGrid  ... OptM3 with GC (2021)
Angular Grid (max. ang.)         AngularGrid ... 4 (Lebedev-302)
Angular grid pruning method      GridPruning ... 4 (adaptive)
Weight generation scheme         WeightScheme... Becke
Basis function cutoff            BFCut       ... 1.0000e-11
Integration weight cutoff        WCut        ... 1.0000e-14
Angular grids for H and He will be reduced by one unit
Partially contracted basis set               ... off
Rotationally invariant grid construction     ... off

Total number of grid points                  ...    25300
Total number of batches                      ...      400
Average number of points per batch           ...       63
Average number of grid points per atom       ...     4217
Time for grid setup =    0.116 sec

--------------------
COSX GRID GENERATION
--------------------

GRIDX 1
-------
General Integration Accuracy     IntAcc      ... 3.816
Radial Grid Type                 RadialGrid  ... OptM3 with GC (2021)
Angular Grid (max. ang.)         AngularGrid ... 1 (Lebedev-50)
Angular grid pruning method      GridPruning ... 4 (adaptive)
Weight generation scheme         WeightScheme... Becke
Basis function cutoff            BFCut       ... 1.0000e-11
Integration weight cutoff        WCut        ... 1.0000e-14
Angular grids for H and He will be reduced by one unit
Partially contracted basis set               ... on
Rotationally invariant grid construction     ... off

Total number of grid points                  ...     3282
Total number of batches                      ...       54
Average number of points per batch           ...       60
Average number of grid points per atom       ...      547
UseSFitting                                  ... on

GRIDX 2
-------
General Integration Accuracy     IntAcc      ... 4.020
Radial Grid Type                 RadialGrid  ... OptM3 with GC (2021)
Angular Grid (max. ang.)         AngularGrid ... 2 (Lebedev-110)
Angular grid pruning method      GridPruning ... 4 (adaptive)
Weight generation scheme         WeightScheme... Becke
Basis function cutoff            BFCut       ... 1.0000e-11
Integration weight cutoff        WCut        ... 1.0000e-14
Angular grids for H and He will be reduced by one unit
Partially contracted basis set               ... on
Rotationally invariant grid construction     ... off

Total number of grid points                  ...     6908
Total number of batches                      ...      110
Average number of points per batch           ...       62
Average number of grid points per atom       ...     1151
UseSFitting                                  ... on

GRIDX 3
-------
General Integration Accuracy     IntAcc      ... 4.338
Radial Grid Type                 RadialGrid  ... OptM3 with GC (2021)
Angular Grid (max. ang.)         AngularGrid ... 3 (Lebedev-194)
Angular grid pruning method      GridPruning ... 4 (adaptive)
Weight generation scheme         WeightScheme... Becke
Basis function cutoff            BFCut       ... 1.0000e-11
Integration weight cutoff        WCut        ... 1.0000e-14
Angular grids for H and He will be reduced by one unit
Partially contracted basis set               ... on
Rotationally invariant grid construction     ... off

Total number of grid points                  ...    15210
Total number of batches                      ...      240
Average number of points per batch           ...       63
Average number of grid points per atom       ...     2535
UseSFitting                                  ... on

Time for X-Grid setup             =    0.100 sec

--------------
SCF ITERATIONS
--------------
ITER       Energy         Delta-E        Max-DP      RMS-DP      [F,P]     Damp
               ***  Starting incremental Fock matrix formation  ***
                      *** Initiating the SOSCF procedure ***
                      *** Re-Reading the Fockian *** 
                      *** Removing any level shift *** 
ITER      Energy       Delta-E        Grad      Rot      Max-DP    RMS-DP
  0    -78.42563015 -78.4256301467  0.000009  0.000009  0.000008  0.000001
               *** Restarting incremental Fock matrix formation ***
  1    -78.42563014   0.0000000020  0.000003  0.000004  0.000006  0.000000
                  ***Gradient check signals convergence***
              ***Rediagonalizing the Fockian in SOSCF/NRSCF***

               *****************************************************
               *                     SUCCESS                       *
               *           SCF CONVERGED AFTER   2 CYCLES          *
               *****************************************************

Old exchange energy                            =     -2.926052939 Eh
New exchange energy                            =     -2.926051268 Eh
Exchange energy change after final integration =      0.000001671 Eh
Total energy after final integration           =    -78.425628473 Eh
Final COS-X integration done in                =     0.365 sec

----------------
TOTAL SCF ENERGY
----------------

Total Energy       :          -78.42562847 Eh           -2134.06984 eV

Components:
Nuclear Repulsion  :           33.24811234 Eh             904.72713 eV
Electronic Energy  :         -111.67374081 Eh           -3038.79698 eV
One Electron Energy:         -169.95981894 Eh           -4624.84180 eV
Two Electron Energy:           58.28607813 Eh            1586.04482 eV
Max COSX asymmetry :            0.00000120 Eh               0.00003 eV

Virial components:
Potential Energy   :         -155.89508684 Eh           -4242.12098 eV
Kinetic Energy     :           77.46945837 Eh            2108.05113 eV
Virial Ratio       :            2.01234254


DFT components:
N(Alpha)           :        7.999996851513 electrons
N(Beta)            :        7.999996851513 electrons
N(Total)           :       15.999993703026 electrons
E(X)               :       -8.732986382400 Eh       
E(C)               :       -0.500401723558 Eh       
E(XC)              :       -9.233388105958 Eh       
DFET-embed. en.    :        0.000000000000 Eh       

---------------
SCF CONVERGENCE
---------------

  Last Energy change         ...    7.4134e-10  Tolerance :   1.0000e-08
  Last MAX-Density change    ...    4.4409e-16  Tolerance :   1.0000e-07
  Last RMS-Density change    ...    2.8068e-17  Tolerance :   5.0000e-09
  Last Orbital Gradient      ...    1.8949e-06  Tolerance :   1.0000e-05
  Last Orbital Rotation      ...    1.5368e-06  Tolerance :   1.0000e-05

             **** THE GBW FILE WAS UPDATED (r1_C2H4_opt_orca.gbw) ****
             **** DENSITY r1_C2H4_opt_orca.scfp WAS UPDATED ****
             **** ENERGY FILE WAS UPDATED (r1_C2H4_opt_orca.en.tmp) ****
             **** THE GBW FILE WAS UPDATED (r1_C2H4_opt_orca.gbw) ****
             **** DENSITY r1_C2H4_opt_orca.scfp WAS UPDATED ****
----------------
ORBITAL ENERGIES
----------------

  NO   OCC          E(Eh)            E(eV) 
   0   2.0000     -10.236207      -278.5413 
   1   2.0000     -10.235423      -278.5200 
   2   2.0000      -0.773682       -21.0530 
   3   2.0000      -0.587465       -15.9857 
   4   2.0000      -0.479640       -13.0517 
   5   2.0000      -0.431811       -11.7502 
   6   2.0000      -0.362959        -9.8766 
   7   2.0000      -0.286694        -7.8014 
   8   0.0000       0.013798         0.3755 
   9   0.0000       0.096201         2.6178 
  10   0.0000       0.114722         3.1217 
  11   0.0000       0.128536         3.4976 
  12   0.0000       0.200291         5.4502 
  13   0.0000       0.335428         9.1275 
  14   0.0000       0.408811        11.1243 
  15   0.0000       0.446588        12.1523 
  16   0.0000       0.457621        12.4525 
  17   0.0000       0.508595        13.8396 
  18   0.0000       0.564587        15.3632 
  19   0.0000       0.598089        16.2748 
  20   0.0000       0.664376        18.0786 
  21   0.0000       0.687576        18.7099 
  22   0.0000       0.695880        18.9358 
  23   0.0000       0.708037        19.2667 
  24   0.0000       0.836443        22.7608 
  25   0.0000       1.061713        28.8907 
  26   0.0000       1.180918        32.1344 
  27   0.0000       1.243568        33.8392 
  28   0.0000       1.277152        34.7531 
  29   0.0000       1.585600        43.1464 
  30   0.0000       1.632874        44.4328 
  31   0.0000       1.641494        44.6673 
  32   0.0000       1.709594        46.5204 
  33   0.0000       1.753828        47.7241 
  34   0.0000       1.772897        48.2430 
  35   0.0000       1.826188        49.6931 
  36   0.0000       1.924829        52.3772 
  37   0.0000       2.072759        56.4026 
  38   0.0000       2.169326        59.0304 
  39   0.0000       2.242384        61.0184 
  40   0.0000       2.385816        64.9214 
  41   0.0000       2.390118        65.0384 
  42   0.0000       2.488353        67.7115 
  43   0.0000       2.699458        73.4560 
  44   0.0000       2.801194        76.2244 
  45   0.0000       2.831353        77.0450 
  46   0.0000       3.070310        83.5474 
  47   0.0000       3.339024        90.8595 

                    ********************************
                    * MULLIKEN POPULATION ANALYSIS *
                    ********************************

-----------------------
MULLIKEN ATOMIC CHARGES
-----------------------
   0 C :   -0.115702
   1 C :   -0.115696
   2 H :    0.057957
   3 H :    0.057743
   4 H :    0.057956
   5 H :    0.057742
Sum of atomic charges:   -0.0000000

--------------------------------
MULLIKEN REDUCED ORBITAL CHARGES
--------------------------------
  0 C s       :     3.147391  s :     3.147391
      pz      :     0.984958  p :     2.941506
      px      :     0.984727
      py      :     0.971821
      dz2     :     0.001698  d :     0.026805
      dxz     :     0.005671
      dyz     :     0.000027
      dx2y2   :     0.007163
      dxy     :     0.012246
  1 C s       :     3.147391  s :     3.147391
      pz      :     0.984954  p :     2.941500
      px      :     0.984726
      py      :     0.971821
      dz2     :     0.001698  d :     0.026805
      dxz     :     0.005671
      dyz     :     0.000027
      dx2y2   :     0.007163
      dxy     :     0.012246
  2 H s       :     0.918060  s :     0.918060
      pz      :     0.004683  p :     0.023983
      px      :     0.007578
      py      :     0.011722
  3 H s       :     0.918272  s :     0.918272
      pz      :     0.004675  p :     0.023985
      px      :     0.006432
      py      :     0.012878
  4 H s       :     0.918061  s :     0.918061
      pz      :     0.004682  p :     0.023983
      px      :     0.007578
      py      :     0.011722
  5 H s       :     0.918273  s :     0.918273
      pz      :     0.004675  p :     0.023985
      px      :     0.006431
      py      :     0.012878


                     *******************************
                     * LOEWDIN POPULATION ANALYSIS *
                     *******************************

----------------------
LOEWDIN ATOMIC CHARGES
----------------------
   0 C :   -0.060534
   1 C :   -0.060529
   2 H :    0.030287
   3 H :    0.030245
   4 H :    0.030286
   5 H :    0.030245

-------------------------------
LOEWDIN REDUCED ORBITAL CHARGES
-------------------------------
  0 C s       :     2.894990  s :     2.894990
      pz      :     0.961440  p :     3.096187
      px      :     1.085981
      py      :     1.048766
      dz2     :     0.004502  d :     0.069356
      dxz     :     0.010656
      dyz     :     0.000056
      dx2y2   :     0.020981
      dxy     :     0.033162
  1 C s       :     2.894990  s :     2.894990
      pz      :     0.961436  p :     3.096182
      px      :     1.085980
      py      :     1.048766
      dz2     :     0.004502  d :     0.069357
      dxz     :     0.010656
      dyz     :     0.000056
      dx2y2   :     0.020981
      dxy     :     0.033162
  2 H s       :     0.902011  s :     0.902011
      pz      :     0.014000  p :     0.067702
      px      :     0.020279
      py      :     0.033423
  3 H s       :     0.902050  s :     0.902050
      pz      :     0.013981  p :     0.067705
      px      :     0.017064
      py      :     0.036659
  4 H s       :     0.902011  s :     0.902011
      pz      :     0.014000  p :     0.067702
      px      :     0.020279
      py      :     0.033423
  5 H s       :     0.902050  s :     0.902050
      pz      :     0.013981  p :     0.067705
      px      :     0.017064
      py      :     0.036659


                      *****************************
                      * MAYER POPULATION ANALYSIS *
                      *****************************

  NA   - Mulliken gross atomic population
  ZA   - Total nuclear charge
  QA   - Mulliken gross atomic charge
  VA   - Mayer's total valence
  BVA  - Mayer's bonded valence
  FA   - Mayer's free valence

  ATOM       NA         ZA         QA         VA         BVA        FA
  0 C      6.1157     6.0000    -0.1157     4.0025     4.0025    -0.0000
  1 C      6.1157     6.0000    -0.1157     4.0025     4.0025    -0.0000
  2 H      0.9420     1.0000     0.0580     0.9744     0.9744    -0.0000
  3 H      0.9423     1.0000     0.0577     0.9745     0.9745    -0.0000
  4 H      0.9420     1.0000     0.0580     0.9744     0.9744    -0.0000
  5 H      0.9423     1.0000     0.0577     0.9745     0.9745    -0.0000

  Mayer bond orders larger than 0.100000
B(  0-C ,  1-C ) :   2.0649 B(  0-C ,  2-H ) :   0.9635 B(  0-C ,  3-H ) :   0.9635 
B(  1-C ,  4-H ) :   0.9635 B(  1-C ,  5-H ) :   0.9635 


------------------
HIRSHFELD ANALYSIS
------------------

Total integrated alpha density =      7.999996852
Total integrated beta density  =      7.999996852

  ATOM     CHARGE      SPIN    
   0 C   -0.070685    0.000000
   1 C   -0.070681    0.000000
   2 H    0.035348    0.000000
   3 H    0.035339    0.000000
   4 H    0.035348    0.000000
   5 H    0.035339    0.000000

  TOTAL   0.000006    0.000000

-------
TIMINGS
-------

Total SCF time: 0 days 0 hours 0 min 1 sec 

Total time                  ....       1.636 sec
Sum of individual times     ....       1.569 sec  ( 95.9%)

Fock matrix formation       ....       1.308 sec  ( 80.0%)
  Split-RI-J                ....       0.132 sec  ( 10.1% of F)
  Chain of spheres X        ....       0.945 sec  ( 72.2% of F)
  XC integration            ....       0.240 sec  ( 18.3% of F)
    Basis function eval.    ....       0.086 sec  ( 35.7% of XC)
    Density eval.           ....       0.050 sec  ( 21.0% of XC)
    XC-Functional eval.     ....       0.039 sec  ( 16.5% of XC)
    XC-Potential eval.      ....       0.041 sec  ( 17.0% of XC)
Diagonalization             ....       0.000 sec  (  0.0%)
Density matrix formation    ....       0.000 sec  (  0.0%)
Population analysis         ....       0.043 sec  (  2.6%)
Initial guess               ....       0.001 sec  (  0.1%)
Orbital Transformation      ....       0.000 sec  (  0.0%)
Orbital Orthonormalization  ....       0.000 sec  (  0.0%)
DIIS solution               ....       0.000 sec  (  0.0%)
SOSCF solution              ....       0.000 sec  (  0.0%)
Grid generation             ....       0.216 sec  ( 13.2%)

Maximum memory used throughout the entire SCF-calculation: 45.6 MB


-------------------------------------------------------------------------------
                          DFT DISPERSION CORRECTION                            
                                                                               
                              DFTD3 V3.1  Rev 1                                
                          USING Becke-Johnson damping                          
-------------------------------------------------------------------------------
The PBE0 functional is recognized
Active option DFTDOPT                   ...         4   

molecular C6(AA) [au] = 294.549980 


            DFT-D V3
 parameters
 s6 scaling factor         :     1.0000 
 a1 scaling factor         :     0.4145 
 s8 scaling factor         :     1.2177 
 a2 scaling factor         :     4.8593 
 ad hoc parameters k1-k3   :    16.0000     1.3333    -4.0000 

 Edisp/kcal,au: -1.192050188230  -0.001899652691 
 E6   /kcal   :  -0.781366860 
 E8   /kcal   :  -0.410683328 
 % E8         :  34.451848749 

-------------------------   ----------------
Dispersion correction           -0.001899653
-------------------------   ----------------


-------------------------   --------------------
FINAL SINGLE POINT ENERGY       -78.427528125713
-------------------------   --------------------

                                *** OPTIMIZATION RUN DONE ***

                            ***************************************
                            *     ORCA property calculations      *
                            ***************************************

                                    ---------------------
                                    Active property flags
                                    ---------------------
   (+) Dipole Moment


------------------------------------------------------------------------------
                       ORCA ELECTRIC PROPERTIES CALCULATION
------------------------------------------------------------------------------

Dipole Moment Calculation                       ... on
Quadrupole Moment Calculation                   ... off
Polarizability Calculation                      ... off
GBWName                                         ... r1_C2H4_opt_orca.gbw
Electron density                                ... r1_C2H4_opt_orca.scfp
The origin for moment calculation is the CENTER OF MASS  = ( 0.000001,  0.000001  0.000031)

-------------
DIPOLE MOMENT
-------------
                                X             Y             Z
Electronic contribution:     -0.00000       0.00000      -0.00000
Nuclear contribution   :     -0.00000      -0.00000       0.00000
                        -----------------------------------------
Total Dipole Moment    :     -0.00001      -0.00000      -0.00000
                        -----------------------------------------
Magnitude (a.u.)       :      0.00001
Magnitude (Debye)      :      0.00002



--------------------
Rotational spectrum 
--------------------
 
Rotational constants in cm-1:     4.821946     1.001475     0.829248 
Rotational constants in MHz : 144558.311645 30023.457621 24860.215229 

 Dipole components along the rotational axes: 
x,y,z [a.u.] :     0.000006    -0.000000     0.000000 
x,y,z [Debye]:     0.000015    -0.000001     0.000000 

 

Timings for individual modules:

Sum of individual times         ...       13.024 sec (=   0.217 min)
GTO integral calculation        ...        0.363 sec (=   0.006 min)   2.8 %
SCF iterations                  ...        9.218 sec (=   0.154 min)  70.8 %
SCF Gradient evaluation         ...        3.386 sec (=   0.056 min)  26.0 %
Geometry relaxation             ...        0.057 sec (=   0.001 min)   0.4 %
                             ****ORCA TERMINATED NORMALLY****
TOTAL RUN TIME: 0 days 0 hours 0 minutes 13 seconds 300 msec
